
     Program PW2WANNIER v.6.4.1 starts on  7Oct2019 at 17: 7:14 

     This program is part of the open-source Quantum ESPRESSO suite
     for quantum simulation of materials; please cite
         "P. Giannozzi et al., J. Phys.:Condens. Matter 21 395502 (2009);
         "P. Giannozzi et al., J. Phys.:Condens. Matter 29 465901 (2017);
          URL http://www.quantum-espresso.org", 
     in publications or presentations arising from this work. More details at
     http://www.quantum-espresso.org/quote

     Parallel version (MPI), running on     8 processors

     MPI processes distributed on     1 nodes
     R & G space division:  proc/nbgrp/npool/nimage =       8
 
  Reading nscf_save data

     Reading data from directory:
     temp/GeTe.slab.save/
     Message from routine pw_read_schema:
     failed retrieving input info from xml file, please check it

     IMPORTANT: XC functional enforced from input :
     Exchange-correlation= PBESOL
                           (   1   4  10   8   0   0   0)
     Any further DFT definition will be discarded
     Please, verify this is what you really want

 
     Parallelization info
     --------------------
     sticks:   dense  smooth     PW     G-vecs:    dense   smooth      PW
     Min         105     105     37                38189    38189    7865
     Max         106     106     38                38286    38286    7906
     Sum         847     847    301               306169   306169   63099
 

     Check: negative core charge=   -0.000005
 
  Spin CASE ( non-collinear )
 
  Wannier mode is: standalone     
 
  -----------------
  *** Reading nnkp 
  -----------------
 
  Checking info from wannier.nnkp file
 
  - Real lattice is ok
  - Reciprocal lattice is ok
  - K-points are ok
  - Number of wannier functions is ok (240)
  - All guiding functions are given 
 
 Projections:
    0.499995   -0.288672    6.034188  0  1  1    1.000000
    0.499995   -0.288672    6.034188  0  1  1    1.000000
    0.499995   -0.288672    6.034188  1  1  1    1.000000
    0.499995   -0.288672    6.034188  1  1  1    1.000000
    0.499995   -0.288672    6.034188  1  2  1    1.000000
    0.499995   -0.288672    6.034188  1  2  1    1.000000
    0.499995   -0.288672    6.034188  1  3  1    1.000000
    0.499995   -0.288672    6.034188  1  3  1    1.000000
   -0.499995    0.288672    5.670312  0  1  1    1.000000
   -0.499995    0.288672    5.670312  0  1  1    1.000000
   -0.499995    0.288672    5.670312  1  1  1    1.000000
   -0.499995    0.288672    5.670312  1  1  1    1.000000
   -0.499995    0.288672    5.670312  1  2  1    1.000000
   -0.499995    0.288672    5.670312  1  2  1    1.000000
   -0.499995    0.288672    5.670312  1  3  1    1.000000
   -0.499995    0.288672    5.670312  1  3  1    1.000000
    0.000000    0.000000    5.198087  0  1  1    1.000000
    0.000000    0.000000    5.198087  0  1  1    1.000000
    0.000000    0.000000    5.198087  1  1  1    1.000000
    0.000000    0.000000    5.198087  1  1  1    1.000000
    0.000000    0.000000    5.198087  1  2  1    1.000000
    0.000000    0.000000    5.198087  1  2  1    1.000000
    0.000000    0.000000    5.198087  1  3  1    1.000000
    0.000000    0.000000    5.198087  1  3  1    1.000000
    0.499995   -0.288672    4.834363  0  1  1    1.000000
    0.499995   -0.288672    4.834363  0  1  1    1.000000
    0.499995   -0.288672    4.834363  1  1  1    1.000000
    0.499995   -0.288672    4.834363  1  1  1    1.000000
    0.499995   -0.288672    4.834363  1  2  1    1.000000
    0.499995   -0.288672    4.834363  1  2  1    1.000000
    0.499995   -0.288672    4.834363  1  3  1    1.000000
    0.499995   -0.288672    4.834363  1  3  1    1.000000
   -0.499995    0.288672    4.361987  0  1  1    1.000000
   -0.499995    0.288672    4.361987  0  1  1    1.000000
   -0.499995    0.288672    4.361987  1  1  1    1.000000
   -0.499995    0.288672    4.361987  1  1  1    1.000000
   -0.499995    0.288672    4.361987  1  2  1    1.000000
   -0.499995    0.288672    4.361987  1  2  1    1.000000
   -0.499995    0.288672    4.361987  1  3  1    1.000000
   -0.499995    0.288672    4.361987  1  3  1    1.000000
    0.000000    0.000000    3.998263  0  1  1    1.000000
    0.000000    0.000000    3.998263  0  1  1    1.000000
    0.000000    0.000000    3.998263  1  1  1    1.000000
    0.000000    0.000000    3.998263  1  1  1    1.000000
    0.000000    0.000000    3.998263  1  2  1    1.000000
    0.000000    0.000000    3.998263  1  2  1    1.000000
    0.000000    0.000000    3.998263  1  3  1    1.000000
    0.000000    0.000000    3.998263  1  3  1    1.000000
    0.499995   -0.288672    3.526037  0  1  1    1.000000
    0.499995   -0.288672    3.526037  0  1  1    1.000000
    0.499995   -0.288672    3.526037  1  1  1    1.000000
    0.499995   -0.288672    3.526037  1  1  1    1.000000
    0.499995   -0.288672    3.526037  1  2  1    1.000000
    0.499995   -0.288672    3.526037  1  2  1    1.000000
    0.499995   -0.288672    3.526037  1  3  1    1.000000
    0.499995   -0.288672    3.526037  1  3  1    1.000000
   -0.499995    0.288672    3.162313  0  1  1    1.000000
   -0.499995    0.288672    3.162313  0  1  1    1.000000
   -0.499995    0.288672    3.162313  1  1  1    1.000000
   -0.499995    0.288672    3.162313  1  1  1    1.000000
   -0.499995    0.288672    3.162313  1  2  1    1.000000
   -0.499995    0.288672    3.162313  1  2  1    1.000000
   -0.499995    0.288672    3.162313  1  3  1    1.000000
   -0.499995    0.288672    3.162313  1  3  1    1.000000
    0.000000    0.000000    2.689937  0  1  1    1.000000
    0.000000    0.000000    2.689937  0  1  1    1.000000
    0.000000    0.000000    2.689937  1  1  1    1.000000
    0.000000    0.000000    2.689937  1  1  1    1.000000
    0.000000    0.000000    2.689937  1  2  1    1.000000
    0.000000    0.000000    2.689937  1  2  1    1.000000
    0.000000    0.000000    2.689937  1  3  1    1.000000
    0.000000    0.000000    2.689937  1  3  1    1.000000
    0.499995   -0.288672    2.326213  0  1  1    1.000000
    0.499995   -0.288672    2.326213  0  1  1    1.000000
    0.499995   -0.288672    2.326213  1  1  1    1.000000
    0.499995   -0.288672    2.326213  1  1  1    1.000000
    0.499995   -0.288672    2.326213  1  2  1    1.000000
    0.499995   -0.288672    2.326213  1  2  1    1.000000
    0.499995   -0.288672    2.326213  1  3  1    1.000000
    0.499995   -0.288672    2.326213  1  3  1    1.000000
   -0.499995    0.288672    1.853988  0  1  1    1.000000
   -0.499995    0.288672    1.853988  0  1  1    1.000000
   -0.499995    0.288672    1.853988  1  1  1    1.000000
   -0.499995    0.288672    1.853988  1  1  1    1.000000
   -0.499995    0.288672    1.853988  1  2  1    1.000000
   -0.499995    0.288672    1.853988  1  2  1    1.000000
   -0.499995    0.288672    1.853988  1  3  1    1.000000
   -0.499995    0.288672    1.853988  1  3  1    1.000000
    0.000000    0.000000    1.490263  0  1  1    1.000000
    0.000000    0.000000    1.490263  0  1  1    1.000000
    0.000000    0.000000    1.490263  1  1  1    1.000000
    0.000000    0.000000    1.490263  1  1  1    1.000000
    0.000000    0.000000    1.490263  1  2  1    1.000000
    0.000000    0.000000    1.490263  1  2  1    1.000000
    0.000000    0.000000    1.490263  1  3  1    1.000000
    0.000000    0.000000    1.490263  1  3  1    1.000000
    0.499995   -0.288672    1.017887  0  1  1    1.000000
    0.499995   -0.288672    1.017887  0  1  1    1.000000
    0.499995   -0.288672    1.017887  1  1  1    1.000000
    0.499995   -0.288672    1.017887  1  1  1    1.000000
    0.499995   -0.288672    1.017887  1  2  1    1.000000
    0.499995   -0.288672    1.017887  1  2  1    1.000000
    0.499995   -0.288672    1.017887  1  3  1    1.000000
    0.499995   -0.288672    1.017887  1  3  1    1.000000
   -0.499995    0.288672    0.654163  0  1  1    1.000000
   -0.499995    0.288672    0.654163  0  1  1    1.000000
   -0.499995    0.288672    0.654163  1  1  1    1.000000
   -0.499995    0.288672    0.654163  1  1  1    1.000000
   -0.499995    0.288672    0.654163  1  2  1    1.000000
   -0.499995    0.288672    0.654163  1  2  1    1.000000
   -0.499995    0.288672    0.654163  1  3  1    1.000000
   -0.499995    0.288672    0.654163  1  3  1    1.000000
    0.000000    0.000000    0.181938  0  1  1    1.000000
    0.000000    0.000000    0.181938  0  1  1    1.000000
    0.000000    0.000000    0.181938  1  1  1    1.000000
    0.000000    0.000000    0.181938  1  1  1    1.000000
    0.000000    0.000000    0.181938  1  2  1    1.000000
    0.000000    0.000000    0.181938  1  2  1    1.000000
    0.000000    0.000000    0.181938  1  3  1    1.000000
    0.000000    0.000000    0.181938  1  3  1    1.000000
    0.499995   -0.288672   -0.181938  0  1  1    1.000000
    0.499995   -0.288672   -0.181938  0  1  1    1.000000
    0.499995   -0.288672   -0.181938  1  1  1    1.000000
    0.499995   -0.288672   -0.181938  1  1  1    1.000000
    0.499995   -0.288672   -0.181938  1  2  1    1.000000
    0.499995   -0.288672   -0.181938  1  2  1    1.000000
    0.499995   -0.288672   -0.181938  1  3  1    1.000000
    0.499995   -0.288672   -0.181938  1  3  1    1.000000
   -0.499995    0.288672   -0.654163  0  1  1    1.000000
   -0.499995    0.288672   -0.654163  0  1  1    1.000000
   -0.499995    0.288672   -0.654163  1  1  1    1.000000
   -0.499995    0.288672   -0.654163  1  1  1    1.000000
   -0.499995    0.288672   -0.654163  1  2  1    1.000000
   -0.499995    0.288672   -0.654163  1  2  1    1.000000
   -0.499995    0.288672   -0.654163  1  3  1    1.000000
   -0.499995    0.288672   -0.654163  1  3  1    1.000000
    0.000000    0.000000   -1.017887  0  1  1    1.000000
    0.000000    0.000000   -1.017887  0  1  1    1.000000
    0.000000    0.000000   -1.017887  1  1  1    1.000000
    0.000000    0.000000   -1.017887  1  1  1    1.000000
    0.000000    0.000000   -1.017887  1  2  1    1.000000
    0.000000    0.000000   -1.017887  1  2  1    1.000000
    0.000000    0.000000   -1.017887  1  3  1    1.000000
    0.000000    0.000000   -1.017887  1  3  1    1.000000
    0.499995   -0.288672   -1.490263  0  1  1    1.000000
    0.499995   -0.288672   -1.490263  0  1  1    1.000000
    0.499995   -0.288672   -1.490263  1  1  1    1.000000
    0.499995   -0.288672   -1.490263  1  1  1    1.000000
    0.499995   -0.288672   -1.490263  1  2  1    1.000000
    0.499995   -0.288672   -1.490263  1  2  1    1.000000
    0.499995   -0.288672   -1.490263  1  3  1    1.000000
    0.499995   -0.288672   -1.490263  1  3  1    1.000000
   -0.499995    0.288672   -1.853988  0  1  1    1.000000
   -0.499995    0.288672   -1.853988  0  1  1    1.000000
   -0.499995    0.288672   -1.853988  1  1  1    1.000000
   -0.499995    0.288672   -1.853988  1  1  1    1.000000
   -0.499995    0.288672   -1.853988  1  2  1    1.000000
   -0.499995    0.288672   -1.853988  1  2  1    1.000000
   -0.499995    0.288672   -1.853988  1  3  1    1.000000
   -0.499995    0.288672   -1.853988  1  3  1    1.000000
    0.000000    0.000000   -2.326213  0  1  1    1.000000
    0.000000    0.000000   -2.326213  0  1  1    1.000000
    0.000000    0.000000   -2.326213  1  1  1    1.000000
    0.000000    0.000000   -2.326213  1  1  1    1.000000
    0.000000    0.000000   -2.326213  1  2  1    1.000000
    0.000000    0.000000   -2.326213  1  2  1    1.000000
    0.000000    0.000000   -2.326213  1  3  1    1.000000
    0.000000    0.000000   -2.326213  1  3  1    1.000000
    0.499995   -0.288672   -2.689937  0  1  1    1.000000
    0.499995   -0.288672   -2.689937  0  1  1    1.000000
    0.499995   -0.288672   -2.689937  1  1  1    1.000000
    0.499995   -0.288672   -2.689937  1  1  1    1.000000
    0.499995   -0.288672   -2.689937  1  2  1    1.000000
    0.499995   -0.288672   -2.689937  1  2  1    1.000000
    0.499995   -0.288672   -2.689937  1  3  1    1.000000
    0.499995   -0.288672   -2.689937  1  3  1    1.000000
   -0.499995    0.288672   -3.162313  0  1  1    1.000000
   -0.499995    0.288672   -3.162313  0  1  1    1.000000
   -0.499995    0.288672   -3.162313  1  1  1    1.000000
   -0.499995    0.288672   -3.162313  1  1  1    1.000000
   -0.499995    0.288672   -3.162313  1  2  1    1.000000
   -0.499995    0.288672   -3.162313  1  2  1    1.000000
   -0.499995    0.288672   -3.162313  1  3  1    1.000000
   -0.499995    0.288672   -3.162313  1  3  1    1.000000
    0.000000    0.000000   -3.526037  0  1  1    1.000000
    0.000000    0.000000   -3.526037  0  1  1    1.000000
    0.000000    0.000000   -3.526037  1  1  1    1.000000
    0.000000    0.000000   -3.526037  1  1  1    1.000000
    0.000000    0.000000   -3.526037  1  2  1    1.000000
    0.000000    0.000000   -3.526037  1  2  1    1.000000
    0.000000    0.000000   -3.526037  1  3  1    1.000000
    0.000000    0.000000   -3.526037  1  3  1    1.000000
    0.499995   -0.288672   -3.998263  0  1  1    1.000000
    0.499995   -0.288672   -3.998263  0  1  1    1.000000
    0.499995   -0.288672   -3.998263  1  1  1    1.000000
    0.499995   -0.288672   -3.998263  1  1  1    1.000000
    0.499995   -0.288672   -3.998263  1  2  1    1.000000
    0.499995   -0.288672   -3.998263  1  2  1    1.000000
    0.499995   -0.288672   -3.998263  1  3  1    1.000000
    0.499995   -0.288672   -3.998263  1  3  1    1.000000
   -0.499995    0.288672   -4.361987  0  1  1    1.000000
   -0.499995    0.288672   -4.361987  0  1  1    1.000000
   -0.499995    0.288672   -4.361987  1  1  1    1.000000
   -0.499995    0.288672   -4.361987  1  1  1    1.000000
   -0.499995    0.288672   -4.361987  1  2  1    1.000000
   -0.499995    0.288672   -4.361987  1  2  1    1.000000
   -0.499995    0.288672   -4.361987  1  3  1    1.000000
   -0.499995    0.288672   -4.361987  1  3  1    1.000000
    0.000000    0.000000   -4.834363  0  1  1    1.000000
    0.000000    0.000000   -4.834363  0  1  1    1.000000
    0.000000    0.000000   -4.834363  1  1  1    1.000000
    0.000000    0.000000   -4.834363  1  1  1    1.000000
    0.000000    0.000000   -4.834363  1  2  1    1.000000
    0.000000    0.000000   -4.834363  1  2  1    1.000000
    0.000000    0.000000   -4.834363  1  3  1    1.000000
    0.000000    0.000000   -4.834363  1  3  1    1.000000
    0.499995   -0.288672   -5.198087  0  1  1    1.000000
    0.499995   -0.288672   -5.198087  0  1  1    1.000000
    0.499995   -0.288672   -5.198087  1  1  1    1.000000
    0.499995   -0.288672   -5.198087  1  1  1    1.000000
    0.499995   -0.288672   -5.198087  1  2  1    1.000000
    0.499995   -0.288672   -5.198087  1  2  1    1.000000
    0.499995   -0.288672   -5.198087  1  3  1    1.000000
    0.499995   -0.288672   -5.198087  1  3  1    1.000000
   -0.499995    0.288672   -5.670312  0  1  1    1.000000
   -0.499995    0.288672   -5.670312  0  1  1    1.000000
   -0.499995    0.288672   -5.670312  1  1  1    1.000000
   -0.499995    0.288672   -5.670312  1  1  1    1.000000
   -0.499995    0.288672   -5.670312  1  2  1    1.000000
   -0.499995    0.288672   -5.670312  1  2  1    1.000000
   -0.499995    0.288672   -5.670312  1  3  1    1.000000
   -0.499995    0.288672   -5.670312  1  3  1    1.000000
    0.000000    0.000000   -6.034188  0  1  1    1.000000
    0.000000    0.000000   -6.034188  0  1  1    1.000000
    0.000000    0.000000   -6.034188  1  1  1    1.000000
    0.000000    0.000000   -6.034188  1  1  1    1.000000
    0.000000    0.000000   -6.034188  1  2  1    1.000000
    0.000000    0.000000   -6.034188  1  2  1    1.000000
    0.000000    0.000000   -6.034188  1  3  1    1.000000
    0.000000    0.000000   -6.034188  1  3  1    1.000000
 
  Reading data about k-point neighbours 
 
  All neighbours are found 
 
  Opening pp-files 
 
 
  --------------------------
  *** Compute  A projections
  --------------------------
 
  AMN: iknum =       25
       1       2       3       4       5       6       7       8       9      10
      11      12      13      14      15      16      17      18      19      20
      21      22      23      24      25

  AMN calculated
 
  ---------------
  *** Compute  M 
  ---------------
 
  MMN: iknum =       25
       1       2       3       4       5       6       7       8       9      10
      11      12      13      14      15      16      17      18      19      20
      21      22      23      24      25

  MMN calculated
 
  ------------------
  *** Compute  Spin 
  ------------------
 
 iknum =       25
       1
       2
       3
       4
       5
       6
       7
       8
       9
      10
      11
      12
      13
      14
      15
      16
      17
      18
      19
      20
      21
      22
      23
      24
      25
 
  SPIN calculated
 
  -----------------------------------
  *** Orbital terms are not computed 
  -----------------------------------
 
  ----------------
  *** Write bands 
  ----------------
 
 
  -----------------------------
  *** Plot info is not printed 
  -----------------------------
 
  -----------------------------
  *** Parity info is not printed 
  -----------------------------
 
  ------------
  *** Stop pp 
  ------------
 
 
     init_pw2wan  :     28.26s CPU    119.95s WALL (       1 calls)
     compute_amn  :    705.09s CPU    747.91s WALL (       1 calls)
     compute_mmn  :   1687.15s CPU   1942.44s WALL (       1 calls)
 
     PW2WANNIER   :  41m34.22s CPU  48m13.87s WALL

 
   This run was terminated on:  17:55:28   7Oct2019            

=------------------------------------------------------------------------------=
   JOB DONE.
=------------------------------------------------------------------------------=
 
