 
             +---------------------------------------------------+
             |                                                   |
             |                   WANNIER90                       |
             |                                                   |
             +---------------------------------------------------+
             |                                                   |
             |        Welcome to the Maximally-Localized         |
             |        Generalized Wannier Functions code         |
             |            http://www.wannier.org                 |
             |                                                   |
             |                                                   |
             |  Wannier90 Developer Group:                       |
             |    Giovanni Pizzi    (EPFL)                       |
             |    Valerio Vitale    (Cambridge)                  |
             |    David Vanderbilt  (Rutgers University)         |
             |    Nicola Marzari    (EPFL)                       |
             |    Ivo Souza         (Universidad del Pais Vasco) |
             |    Arash A. Mostofi  (Imperial College London)    |
             |    Jonathan R. Yates (University of Oxford)       |
             |                                                   |
             |  For the full list of Wannier90 3.x authors,      |
             |  please check the code documentation and the      |
             |  README on the GitHub page of the code            |
             |                                                   |
             |                                                   |
             |  Please cite                                      |
             |                                                   |
             |  [ref] "Wannier90 as a community code:            |
             |        new features and applications",            |
             |        G. Pizzi et al., arXiv:1907:09788 (2019)   |
             |        https://arxiv.org/abs/1907.09788           |
             |                                                   |
             |  in any publications arising from the use of      |
             |  this code. For the method please cite            |
             |                                                   |
             |  [ref] "Maximally Localized Generalised Wannier   |
             |         Functions for Composite Energy Bands"     |
             |         N. Marzari and D. Vanderbilt              |
             |         Phys. Rev. B 56 12847 (1997)              |
             |                                                   |
             |  [ref] "Maximally Localized Wannier Functions     |
             |         for Entangled Energy Bands"               |
             |         I. Souza, N. Marzari and D. Vanderbilt    |
             |         Phys. Rev. B 65 035109 (2001)             |
             |                                                   |
             |                                                   |
             | Copyright (c) 1996-2019                           |
             |        The Wannier90 Developer Group and          |
             |        individual contributors                    |
             |                                                   |
             |      Release: 3.0.0       27th February 2019      |
             |                                                   |
             | This program is free software; you can            |
             | redistribute it and/or modify it under the terms  |
             | of the GNU General Public License as published by |
             | the Free Software Foundation; either version 2 of |
             | the License, or (at your option) any later version|
             |                                                   |
             | This program is distributed in the hope that it   |
             | will be useful, but WITHOUT ANY WARRANTY; without |
             | even the implied warranty of MERCHANTABILITY or   |
             | FITNESS FOR A PARTICULAR PURPOSE. See the GNU     |
             | General Public License for more details.          |
             |                                                   |
             | You should have received a copy of the GNU General|
             | Public License along with this program; if not,   |
             | write to the Free Software Foundation, Inc.,      |
             | 675 Mass Ave, Cambridge, MA 02139, USA.           |
             |                                                   |
             +---------------------------------------------------+
             |    Execution started on  7Oct2019 at 18:06:46     |
             +---------------------------------------------------+
 
 ******************************************************************************
 * -> Using CODATA 2006 constant values                                       *
 *    (http://physics.nist.gov/cuu/Constants/index.html)                      *
 * -> Using Bohr value from CODATA                                            *
 ******************************************************************************
 

 Running in parallel on  25 CPUs

 
                                    ------
                                    SYSTEM
                                    ------
 
                              Lattice Vectors (Ang)
                    a_1     4.177748   0.000000   0.000000
                    a_2    -2.088874   3.618036   0.000000
                    a_3     0.000000   0.000000  62.869262
 
                   Unit Cell Volume:     950.28423  (Ang^3)
 
                        Reciprocal-Space Vectors (Ang^-1)
                    b_1     1.503965   0.868314   0.000000
                    b_2     0.000000   1.736629   0.000000
                    b_3     0.000000   0.000000   0.099940
  
 *----------------------------------------------------------------------------*
 |   Site       Fractional Coordinate          Cartesian Coordinate (Ang)     |
 +----------------------------------------------------------------------------+
 | Ge   1   0.33333  -0.33333   0.40098   |    2.08887  -1.20601  25.20900    |
 | Ge   2   0.00000   0.00000   0.34542   |    0.00000   0.00000  21.71627    |
 | Ge   3  -0.33333   0.33333   0.28986   |   -2.08887   1.20601  18.22353    |
 | Ge   4   0.33333  -0.33333   0.23431   |    2.08887  -1.20601  14.73080    |
 | Ge   5   0.00000   0.00000   0.17875   |    0.00000   0.00000  11.23806    |
 | Ge   6  -0.33333   0.33333   0.12320   |   -2.08887   1.20601   7.74532    |
 | Ge   7   0.33333  -0.33333   0.06764   |    2.08887  -1.20601   4.25258    |
 | Ge   8   0.00000   0.00000   0.01209   |    0.00000   0.00000   0.75984    |
 | Ge   9  -0.33333   0.33333  -0.04347   |   -2.08887   1.20601  -2.73289    |
 | Ge  10   0.33333  -0.33333  -0.09903   |    2.08887  -1.20601  -6.22563    |
 | Ge  11   0.00000   0.00000  -0.15458   |    0.00000   0.00000  -9.71836    |
 | Ge  12  -0.33333   0.33333  -0.21014   |   -2.08887   1.20601 -13.21110    |
 | Ge  13   0.33333  -0.33333  -0.26569   |    2.08887  -1.20601 -16.70383    |
 | Ge  14   0.00000   0.00000  -0.32125   |    0.00000   0.00000 -20.19657    |
 | Ge  15  -0.33333   0.33333  -0.37680   |   -2.08887   1.20601 -23.68931    |
 | Te   1  -0.33333   0.33333   0.37680   |   -2.08887   1.20601  23.68931    |
 | Te   2   0.33333  -0.33333   0.32125   |    2.08887  -1.20601  20.19657    |
 | Te   3   0.00000   0.00000   0.26569   |    0.00000   0.00000  16.70383    |
 | Te   4  -0.33333   0.33333   0.21014   |   -2.08887   1.20601  13.21110    |
 | Te   5   0.33333  -0.33333   0.15458   |    2.08887  -1.20601   9.71836    |
 | Te   6   0.00000   0.00000   0.09903   |    0.00000   0.00000   6.22563    |
 | Te   7  -0.33333   0.33333   0.04347   |   -2.08887   1.20601   2.73289    |
 | Te   8   0.33333  -0.33333  -0.01209   |    2.08887  -1.20601  -0.75984    |
 | Te   9   0.00000   0.00000  -0.06764   |    0.00000   0.00000  -4.25258    |
 | Te  10  -0.33333   0.33333  -0.12320   |   -2.08887   1.20601  -7.74532    |
 | Te  11   0.33333  -0.33333  -0.17875   |    2.08887  -1.20601 -11.23806    |
 | Te  12   0.00000   0.00000  -0.23431   |    0.00000   0.00000 -14.73080    |
 | Te  13  -0.33333   0.33333  -0.28986   |   -2.08887   1.20601 -18.22353    |
 | Te  14   0.33333  -0.33333  -0.34542   |    2.08887  -1.20601 -21.71627    |
 | Te  15   0.00000   0.00000  -0.40098   |    0.00000   0.00000 -25.20900    |
 *----------------------------------------------------------------------------*
                                ------------
                                K-POINT GRID
                                ------------
  
             Grid size =  5 x  5 x  1      Total points =   25
  
  
 *---------------------------------- MAIN ------------------------------------*
 |  Number of Wannier Functions               :               240             |
 |  Number of Objective Wannier Functions     :               240             |
 |  Number of input Bloch states              :               300             |
 |  Output verbosity (1=low, 5=high)          :                 1             |
 |  Timing Level (1=low, 5=high)              :                 1             |
 |  Optimisation (0=memory, 3=speed)          :                 3             |
 |  Length Unit                               :               Ang             |
 |  Post-processing setup (write *.nnkp)      :                 F             |
 |  Using Gamma-only branch of algorithms     :                 F             |
 *----------------------------------------------------------------------------*
 *------------------------------- WANNIERISE ---------------------------------*
 |  Total number of iterations                :                 0             |
 |  Number of CG steps before reset           :                 5             |
 |  Trial step length for line search         :             2.000             |
 |  Convergence tolerence                     :         0.100E-09             |
 |  Convergence window                        :                -1             |
 |  Iterations between writing output         :                 1             |
 |  Iterations between backing up to disk     :               100             |
 |  Write r^2_nm to file                      :                 F             |
 |  Write xyz WF centres to file              :                 F             |
 |  Write on-site energies <0n|H|0n> to file  :                 F             |
 |  Use guiding centre to control phases      :                 F             |
 |  Use phases for initial projections        :                 F             |
 *----------------------------------------------------------------------------*
 *------------------------------- DISENTANGLE --------------------------------*
 |  Using band disentanglement                :                 T             |
 |  Total number of iterations                :             20000             |
 |  Mixing ratio                              :             0.500             |
 |  Convergence tolerence                     :         1.000E-10             |
 |  Convergence window                        :                 3             |
 *----------------------------------------------------------------------------*
 *-------------------------------- PLOTTING ----------------------------------*
 |  Plotting Hamiltonian in WF basis          :                 T             |
 *----------------------------------------------------------------------------*
 Time to read parameters        0.046 (sec)

 *---------------------------------- K-MESH ----------------------------------*
 +----------------------------------------------------------------------------+
 |                    Distance to Nearest-Neighbour Shells                    |
 |                    ------------------------------------                    |
 |          Shell             Distance (Ang^-1)          Multiplicity         |
 |          -----             -----------------          ------------         |
 |             1                   0.099940                      2            |
 |             2                   0.199881                      2            |
 |             3                   0.299821                      2            |
 |             4                   0.347326                      6            |
 |             5                   0.361418                     12            |
 |             6                   0.399762                      2            |
 |             7                   0.400734                     12            |
 |             8                   0.458833                     12            |
 |             9                   0.499702                      2            |
 |            10                   0.529570                     12            |
 |            11                   0.601586                      6            |
 |            12                   0.608554                     12            |
 |            13                   0.609831                     12            |
 |            14                   0.633923                     12            |
 |            15                   0.672160                     12            |
 |            16                   0.694651                      6            |
 |            17                   0.701804                     12            |
 |            18                   0.722299                     12            |
 |            19                   0.722837                     12            |
 |            20                   0.756593                     12            |
 |            21                   0.782054                     12            |
 |            22                   0.801468                     12            |
 |            23                   0.855712                     12            |
 |            24                   0.918938                     12            |
 |            25                   0.924356                     24            |
 |            26                   0.940425                     24            |
 |            27                   0.966612                     24            |
 |            28                   1.002126                     24            |
 |            29                   1.041977                      6            |
 |            30                   1.046016                     24            |
 |            31                   1.046759                     12            |
 |            32                   1.060975                     12            |
 |            33                   1.084255                     12            |
 |            34                   1.116031                     12            |
 |            35                   1.155603                     12            |
 |            36                   1.203172                      6            |
 +----------------------------------------------------------------------------+
 | The b-vectors are chosen automatically                                     |
 | The following shells are used:   1,  4                                     |
 +----------------------------------------------------------------------------+
 |                        Shell   # Nearest-Neighbours                        |
 |                        -----   --------------------                        |
 |                          1               2                                 |
 |                          4               6                                 |
 +----------------------------------------------------------------------------+
 | Completeness relation is fully satisfied [Eq. (B1), PRB 56, 12847 (1997)]  |
 +----------------------------------------------------------------------------+
 |                  b_k Vectors (Ang^-1) and Weights (Ang^2)                  |
 |                  ----------------------------------------                  |
 |            No.         b_k(x)      b_k(y)      b_k(z)        w_b           |
 |            ---        --------------------------------     --------        |
 |             1         0.000000    0.000000    0.099940    50.059556        |
 |             2         0.000000    0.000000   -0.099940    50.059556        |
 |             3         0.000000    0.347326    0.000000     2.763152        |
 |             4         0.300793    0.173663    0.000000     2.763152        |
 |             5         0.000000   -0.347326    0.000000     2.763152        |
 |             6         0.300793   -0.173663    0.000000     2.763152        |
 |             7        -0.300793   -0.173663    0.000000     2.763152        |
 |             8        -0.300793    0.173663    0.000000     2.763152        |
 +----------------------------------------------------------------------------+
 |                           b_k Directions (Ang^-1)                          |
 |                           -----------------------                          |
 |            No.           x           y           z                         |
 |            ---        --------------------------------                     |
 |             1         0.000000    0.000000    0.099940                     |
 |             2         0.000000    0.347326    0.000000                     |
 |             3         0.300793    0.173663    0.000000                     |
 |             4         0.300793   -0.173663    0.000000                     |
 +----------------------------------------------------------------------------+
  
 Time to get kmesh              0.032 (sec)
 *============================================================================*
 |                              MEMORY ESTIMATE                               |
 |         Maximum RAM allocated during each phase of the calculation         |
 *============================================================================*
 |                        Disentanglement          527.59 Mb                  |
 |                            Wannierise:          473.36 Mb                  |
 |                          plot_wannier:          473.36 Mb                  |
 *----------------------------------------------------------------------------*
  
 Starting a new Wannier90 calculation ...


 Reading overlaps from slab/GeTe.slab.mmn    :  Created on  7Oct2019 at 17:21:43

 Reading projections from slab/GeTe.slab.amn :  Created on  7Oct2019 at 17: 9:15

 Time to read overlaps         13.995 (sec)

 *------------------------------- DISENTANGLE --------------------------------*
 +----------------------------------------------------------------------------+
 |                              Energy  Windows                               |
 |                              ---------------                               |
 |                   Outer:   -8.88689  to   14.87340  (eV)                   |
 |                   Inner:   -8.88689  to    5.87340  (eV)                   |
 +----------------------------------------------------------------------------+
   Number of target bands to extract:  240

                   Unitarised projection of Wannier functions                  
                   ------------------------------------------                  
   A_mn = <psi_m|g_n> --> S = A.A^+ --> U = S^-1/2.A
   In dis_project... done
   Using an inner window (linner = T)
   In dis_proj_froz... done

                   Extraction of optimally-connected subspace                  
                   ------------------------------------------                  
 +---------------------------------------------------------------------+<-- DIS
 |  Iter     Omega_I(i-1)      Omega_I(i)      Delta (frac.)    Time   |<-- DIS
 +---------------------------------------------------------------------+<-- DIS
       1     423.37305672     403.38456513       4.955E-02      0.00    <-- DIS
       2     407.26298988     398.06279667       2.311E-02      0.41    <-- DIS
       3     401.75455715     395.27822484       1.638E-02      0.81    <-- DIS
       4     397.82503598     393.32495333       1.144E-02      1.21    <-- DIS
       5     395.04070471     391.87439830       8.080E-03      1.62    <-- DIS
       6     393.03732176     390.76298385       5.820E-03      2.02    <-- DIS
       7     391.56287373     389.89126441       4.287E-03      2.43    <-- DIS
       8     390.45121819     389.19459392       3.229E-03      2.83    <-- DIS
       9     389.59355638     388.62913060       2.482E-03      3.24    <-- DIS
      10     388.91795065     388.16413073       1.942E-03      3.65    <-- DIS
      11     388.37598795     387.77742896       1.544E-03      4.05    <-- DIS
      12     387.93437094     387.45266822       1.243E-03      4.46    <-- DIS
      13     387.56965765     387.17753813       1.013E-03      4.87    <-- DIS
      14     387.26495686     386.94261799       8.330E-04      5.28    <-- DIS
      15     387.00782762     386.74059463       6.910E-04      5.68    <-- DIS
      16     386.78892198     386.56572030       5.774E-04      6.09    <-- DIS
      17     386.60109042     386.41342840       4.857E-04      6.49    <-- DIS
      18     386.43877943     386.28005581       4.109E-04      6.90    <-- DIS
      19     386.29761682     386.16263886       3.495E-04      7.30    <-- DIS
      20     386.17412001     386.05876106       2.988E-04      7.71    <-- DIS
      21     386.06548665     385.96643812       2.566E-04      8.11    <-- DIS
      22     385.96944145     385.88402993       2.213E-04      8.51    <-- DIS
      23     385.88412225     385.81017265       1.917E-04      8.92    <-- DIS
      24     385.80799410     385.74372574       1.666E-04      9.32    <-- DIS
      25     385.73978343     385.68373032       1.453E-04      9.73    <-- DIS
      26     385.67842722     385.62937615       1.272E-04     10.14    <-- DIS
      27     385.62303323     385.57997535       1.117E-04     10.54    <-- DIS
      28     385.57284865     385.53494125       9.832E-05     10.94    <-- DIS
      29     385.52723520     385.49377133       8.681E-05     11.35    <-- DIS
      30     385.48564917     385.45603338       7.683E-05     11.76    <-- DIS
      31     385.44762537     385.42135414       6.816E-05     12.17    <-- DIS
      32     385.41276408     385.38941006       6.060E-05     12.57    <-- DIS
      33     385.38072048     385.35991962       5.398E-05     12.98    <-- DIS
      34     385.35119590     385.33263701       4.816E-05     13.38    <-- DIS
      35     385.32393071     385.30734686       4.304E-05     13.78    <-- DIS
      36     385.29869837     385.28385984       3.851E-05     14.19    <-- DIS
      37     385.27530054     385.26200898       3.450E-05     14.59    <-- DIS
      38     385.25356297     385.24164654       3.093E-05     15.00    <-- DIS
      39     385.23333205     385.22264147       2.775E-05     15.40    <-- DIS
      40     385.21447199     385.20487711       2.491E-05     15.80    <-- DIS
      41     385.19686233     385.18824937       2.236E-05     16.21    <-- DIS
      42     385.18039591     385.17266511       2.007E-05     16.61    <-- DIS
      43     385.16497713     385.15804075       1.801E-05     17.02    <-- DIS
      44     385.15052048     385.14430112       1.615E-05     17.42    <-- DIS
      45     385.13694923     385.13137843       1.446E-05     17.82    <-- DIS
      46     385.12419438     385.11921142       1.294E-05     18.23    <-- DIS
      47     385.11219371     385.10774459       1.155E-05     18.63    <-- DIS
      48     385.10089099     385.09692755       1.029E-05     19.04    <-- DIS
      49     385.09023527     385.08671444       9.143E-06     19.44    <-- DIS
      50     385.08018029     385.07706348       8.094E-06     19.84    <-- DIS
      51     385.07068396     385.06793648       7.135E-06     20.25    <-- DIS
      52     385.06170787     385.05929848       6.257E-06     20.66    <-- DIS
      53     385.05321695     385.05111743       5.453E-06     21.06    <-- DIS
      54     385.04517909     385.04336391       4.714E-06     21.46    <-- DIS
      55     385.03756481     385.03601083       4.036E-06     21.87    <-- DIS
      56     385.03034705     385.02903322       3.412E-06     22.27    <-- DIS
      57     385.02350089     385.02240805       2.838E-06     22.67    <-- DIS
      58     385.01700335     385.01611400       2.310E-06     23.08    <-- DIS
      59     385.01083320     385.01013137       1.823E-06     23.48    <-- DIS
      60     385.00497083     385.00444187       1.374E-06     23.89    <-- DIS
      61     384.99939805     384.99902854       9.598E-07     24.29    <-- DIS
      62     384.99409799     384.99387558       5.777E-07     24.69    <-- DIS
      63     384.98905500     384.98896833       2.251E-07     25.10    <-- DIS
      64     384.98425450     384.98429311      -1.003E-07     25.50    <-- DIS
      65     384.97968293     384.97983716      -4.006E-07     25.91    <-- DIS
      66     384.97532765     384.97558855      -6.777E-07     26.31    <-- DIS
      67     384.97117684     384.97153616      -9.334E-07     26.71    <-- DIS
      68     384.96721947     384.96766956      -1.169E-06     27.11    <-- DIS
      69     384.96344523     384.96397898      -1.386E-06     27.52    <-- DIS
      70     384.95984446     384.96045528      -1.587E-06     27.93    <-- DIS
      71     384.95640811     384.95708987      -1.771E-06     28.33    <-- DIS
      72     384.95312766     384.95387468      -1.941E-06     28.73    <-- DIS
      73     384.94999516     384.95080212      -2.096E-06     29.14    <-- DIS
      74     384.94700311     384.94786507      -2.239E-06     29.54    <-- DIS
      75     384.94414445     384.94505680      -2.370E-06     29.95    <-- DIS
      76     384.94141255     384.94237100      -2.490E-06     30.35    <-- DIS
      77     384.93880116     384.93980170      -2.599E-06     30.76    <-- DIS
      78     384.93630439     384.93734326      -2.699E-06     31.16    <-- DIS
      79     384.93391668     384.93499039      -2.789E-06     31.56    <-- DIS
      80     384.93163277     384.93273805      -2.871E-06     31.96    <-- DIS
      81     384.92944772     384.93058150      -2.945E-06     32.36    <-- DIS
      82     384.92735684     384.92851625      -3.012E-06     32.77    <-- DIS
      83     384.92535569     384.92653806      -3.072E-06     33.17    <-- DIS
      84     384.92344009     384.92464291      -3.125E-06     33.57    <-- DIS
      85     384.92160606     384.92282698      -3.172E-06     33.98    <-- DIS
      86     384.91984984     384.92108666      -3.213E-06     34.38    <-- DIS
      87     384.91816786     384.91941853      -3.249E-06     34.79    <-- DIS
      88     384.91655674     384.91781933      -3.280E-06     35.19    <-- DIS
      89     384.91501328     384.91628599      -3.306E-06     35.59    <-- DIS
      90     384.91353443     384.91481556      -3.328E-06     35.99    <-- DIS
      91     384.91211729     384.91340526      -3.346E-06     36.40    <-- DIS
      92     384.91075912     384.91205245      -3.360E-06     36.80    <-- DIS
      93     384.90945731     384.91075461      -3.370E-06     37.20    <-- DIS
      94     384.90820937     384.90950934      -3.377E-06     37.61    <-- DIS
      95     384.90701293     384.90831436      -3.381E-06     38.02    <-- DIS
      96     384.90586575     384.90716752      -3.382E-06     38.42    <-- DIS
      97     384.90476570     384.90606673      -3.380E-06     38.82    <-- DIS
      98     384.90371072     384.90501002      -3.376E-06     39.22    <-- DIS
      99     384.90269888     384.90399554      -3.369E-06     39.63    <-- DIS
     100     384.90172832     384.90302147      -3.360E-06     40.03    <-- DIS
     101     384.90079729     384.90208613      -3.348E-06     40.44    <-- DIS
     102     384.89990410     384.90118787      -3.335E-06     40.84    <-- DIS
     103     384.89904714     384.90032515      -3.320E-06     41.25    <-- DIS
     104     384.89822489     384.89949649      -3.304E-06     41.65    <-- DIS
     105     384.89743587     384.89870046      -3.286E-06     42.05    <-- DIS
     106     384.89667871     384.89793573      -3.266E-06     42.46    <-- DIS
     107     384.89595206     384.89720099      -3.245E-06     42.86    <-- DIS
     108     384.89525465     384.89649501      -3.223E-06     43.27    <-- DIS
     109     384.89458527     384.89581662      -3.199E-06     43.67    <-- DIS
     110     384.89394275     384.89516468      -3.175E-06     44.07    <-- DIS
     111     384.89332599     384.89453813      -3.149E-06     44.48    <-- DIS
     112     384.89273392     384.89393592      -3.123E-06     44.88    <-- DIS
     113     384.89216552     384.89335707      -3.096E-06     45.29    <-- DIS
     114     384.89161983     384.89280065      -3.068E-06     45.69    <-- DIS
     115     384.89109592     384.89226573      -3.039E-06     46.09    <-- DIS
     116     384.89059290     384.89175147      -3.010E-06     46.49    <-- DIS
     117     384.89010992     384.89125704      -2.980E-06     46.90    <-- DIS
     118     384.88964616     384.89078163      -2.950E-06     47.31    <-- DIS
     119     384.88920084     384.89032450      -2.919E-06     47.71    <-- DIS
     120     384.88877322     384.88988491      -2.888E-06     48.11    <-- DIS
     121     384.88836259     384.88946217      -2.857E-06     48.51    <-- DIS
     122     384.88796825     384.88905561      -2.825E-06     48.92    <-- DIS
     123     384.88758956     384.88866460      -2.793E-06     49.33    <-- DIS
     124     384.88722588     384.88828851      -2.761E-06     49.74    <-- DIS
     125     384.88687661     384.88792677      -2.728E-06     50.14    <-- DIS
     126     384.88654118     384.88757881      -2.696E-06     50.55    <-- DIS
     127     384.88621903     384.88724408      -2.663E-06     50.95    <-- DIS
     128     384.88590964     384.88692208      -2.630E-06     51.35    <-- DIS
     129     384.88561249     384.88661230      -2.598E-06     51.75    <-- DIS
     130     384.88532710     384.88631427      -2.565E-06     52.16    <-- DIS
     131     384.88505299     384.88602753      -2.532E-06     52.56    <-- DIS
     132     384.88478973     384.88575163      -2.499E-06     52.96    <-- DIS
     133     384.88453688     384.88548617      -2.466E-06     53.37    <-- DIS
     134     384.88429403     384.88523074      -2.434E-06     53.77    <-- DIS
     135     384.88406079     384.88498495      -2.401E-06     54.18    <-- DIS
     136     384.88383677     384.88474842      -2.369E-06     54.58    <-- DIS
     137     384.88362160     384.88452080      -2.336E-06     54.98    <-- DIS
     138     384.88341495     384.88430174      -2.304E-06     55.39    <-- DIS
     139     384.88321648     384.88409093      -2.272E-06     55.79    <-- DIS
     140     384.88302586     384.88388803      -2.240E-06     56.19    <-- DIS
     141     384.88284278     384.88369275      -2.208E-06     56.59    <-- DIS
     142     384.88266695     384.88350479      -2.177E-06     57.00    <-- DIS
     143     384.88249808     384.88332388      -2.146E-06     57.40    <-- DIS
     144     384.88233590     384.88314975      -2.115E-06     57.80    <-- DIS
     145     384.88218015     384.88298213      -2.084E-06     58.21    <-- DIS
     146     384.88203058     384.88282078      -2.053E-06     58.61    <-- DIS
     147     384.88188693     384.88266546      -2.023E-06     59.02    <-- DIS
     148     384.88174899     384.88251594      -1.993E-06     59.42    <-- DIS
     149     384.88161653     384.88237200      -1.963E-06     59.83    <-- DIS
     150     384.88148932     384.88223342      -1.933E-06     60.23    <-- DIS
     151     384.88136718     384.88210001      -1.904E-06     60.64    <-- DIS
     152     384.88124990     384.88197157      -1.875E-06     61.04    <-- DIS
     153     384.88113728     384.88184791      -1.846E-06     61.44    <-- DIS
     154     384.88102915     384.88172885      -1.818E-06     61.85    <-- DIS
     155     384.88092534     384.88161422      -1.790E-06     62.25    <-- DIS
     156     384.88082566     384.88150384      -1.762E-06     62.66    <-- DIS
     157     384.88072997     384.88139756      -1.735E-06     63.06    <-- DIS
     158     384.88063810     384.88129523      -1.707E-06     63.47    <-- DIS
     159     384.88054991     384.88119669      -1.680E-06     63.87    <-- DIS
     160     384.88046525     384.88110180      -1.654E-06     64.27    <-- DIS
     161     384.88038399     384.88101043      -1.628E-06     64.67    <-- DIS
     162     384.88030599     384.88092244      -1.602E-06     65.07    <-- DIS
     163     384.88023113     384.88083771      -1.576E-06     65.48    <-- DIS
     164     384.88015927     384.88075611      -1.551E-06     65.88    <-- DIS
     165     384.88009032     384.88067753      -1.526E-06     66.29    <-- DIS
     166     384.88002414     384.88060185      -1.501E-06     66.69    <-- DIS
     167     384.87996064     384.88052897      -1.477E-06     67.10    <-- DIS
     168     384.87989970     384.88045877      -1.453E-06     67.50    <-- DIS
     169     384.87984124     384.88039117      -1.429E-06     67.91    <-- DIS
     170     384.87978514     384.88032606      -1.405E-06     68.32    <-- DIS
     171     384.87973133     384.88026335      -1.382E-06     68.72    <-- DIS
     172     384.87967971     384.88020294      -1.359E-06     69.13    <-- DIS
     173     384.87963019     384.88014477      -1.337E-06     69.53    <-- DIS
     174     384.87958269     384.88008873      -1.315E-06     69.94    <-- DIS
     175     384.87953713     384.88003476      -1.293E-06     70.34    <-- DIS
     176     384.87949344     384.87998277      -1.271E-06     70.74    <-- DIS
     177     384.87945155     384.87993269      -1.250E-06     71.15    <-- DIS
     178     384.87941138     384.87988445      -1.229E-06     71.55    <-- DIS
     179     384.87937286     384.87983798      -1.208E-06     71.95    <-- DIS
     180     384.87933594     384.87979322      -1.188E-06     72.36    <-- DIS
     181     384.87930054     384.87975010      -1.168E-06     72.76    <-- DIS
     182     384.87926662     384.87970856      -1.148E-06     73.17    <-- DIS
     183     384.87923410     384.87966855      -1.129E-06     73.57    <-- DIS
     184     384.87920294     384.87963000      -1.110E-06     73.98    <-- DIS
     185     384.87917308     384.87959286      -1.091E-06     74.38    <-- DIS
     186     384.87914447     384.87955708      -1.072E-06     74.79    <-- DIS
     187     384.87911706     384.87952262      -1.054E-06     75.19    <-- DIS
     188     384.87909080     384.87948941      -1.036E-06     75.60    <-- DIS
     189     384.87906565     384.87945742      -1.018E-06     76.00    <-- DIS
     190     384.87904157     384.87942659      -1.000E-06     76.40    <-- DIS
     191     384.87901851     384.87939690      -9.831E-07     76.81    <-- DIS
     192     384.87899643     384.87936829      -9.662E-07     77.21    <-- DIS
     193     384.87897530     384.87934072      -9.494E-07     77.62    <-- DIS
     194     384.87895507     384.87931416      -9.330E-07     78.02    <-- DIS
     195     384.87893571     384.87928857      -9.168E-07     78.42    <-- DIS
     196     384.87891718     384.87926391      -9.009E-07     78.82    <-- DIS
     197     384.87889946     384.87924015      -8.852E-07     79.23    <-- DIS
     198     384.87888251     384.87921726      -8.698E-07     79.63    <-- DIS
     199     384.87886629     384.87919520      -8.546E-07     80.04    <-- DIS
     200     384.87885079     384.87917395      -8.396E-07     80.44    <-- DIS
     201     384.87883596     384.87915346      -8.249E-07     80.85    <-- DIS
     202     384.87882179     384.87913373      -8.105E-07     81.25    <-- DIS
     203     384.87880825     384.87911471      -7.962E-07     81.65    <-- DIS
     204     384.87879531     384.87909638      -7.823E-07     82.06    <-- DIS
     205     384.87878295     384.87907872      -7.685E-07     82.46    <-- DIS
     206     384.87877114     384.87906171      -7.549E-07     82.86    <-- DIS
     207     384.87875987     384.87904530      -7.416E-07     83.27    <-- DIS
     208     384.87874911     384.87902950      -7.285E-07     83.68    <-- DIS
     209     384.87873883     384.87901427      -7.156E-07     84.08    <-- DIS
     210     384.87872903     384.87899959      -7.030E-07     84.49    <-- DIS
     211     384.87871968     384.87898545      -6.905E-07     84.89    <-- DIS
     212     384.87871076     384.87897181      -6.783E-07     85.29    <-- DIS
     213     384.87870226     384.87895867      -6.662E-07     85.69    <-- DIS
     214     384.87869416     384.87894601      -6.544E-07     86.10    <-- DIS
     215     384.87868644     384.87893381      -6.427E-07     86.50    <-- DIS
     216     384.87867908     384.87892205      -6.313E-07     86.91    <-- DIS
     217     384.87867208     384.87891071      -6.200E-07     87.31    <-- DIS
     218     384.87866541     384.87889979      -6.090E-07     87.72    <-- DIS
     219     384.87865907     384.87888926      -5.981E-07     88.12    <-- DIS
     220     384.87865303     384.87887911      -5.874E-07     88.53    <-- DIS
     221     384.87864730     384.87886932      -5.769E-07     88.93    <-- DIS
     222     384.87864184     384.87885989      -5.665E-07     89.34    <-- DIS
     223     384.87863666     384.87885081      -5.564E-07     89.75    <-- DIS
     224     384.87863174     384.87884205      -5.464E-07     90.15    <-- DIS
     225     384.87862708     384.87883360      -5.366E-07     90.55    <-- DIS
     226     384.87862265     384.87882546      -5.270E-07     90.95    <-- DIS
     227     384.87861845     384.87881762      -5.175E-07     91.36    <-- DIS
     228     384.87861447     384.87881006      -5.082E-07     91.77    <-- DIS
     229     384.87861070     384.87880277      -4.990E-07     92.17    <-- DIS
     230     384.87860713     384.87879574      -4.900E-07     92.58    <-- DIS
     231     384.87860376     384.87878896      -4.812E-07     92.98    <-- DIS
     232     384.87860057     384.87878244      -4.725E-07     93.38    <-- DIS
     233     384.87859756     384.87877614      -4.640E-07     93.78    <-- DIS
     234     384.87859472     384.87877007      -4.556E-07     94.19    <-- DIS
     235     384.87859204     384.87876422      -4.474E-07     94.59    <-- DIS
     236     384.87858951     384.87875858      -4.393E-07     95.00    <-- DIS
     237     384.87858714     384.87875315      -4.313E-07     95.41    <-- DIS
     238     384.87858490     384.87874791      -4.235E-07     95.81    <-- DIS
     239     384.87858280     384.87874285      -4.159E-07     96.21    <-- DIS
     240     384.87858083     384.87873798      -4.083E-07     96.61    <-- DIS
     241     384.87857899     384.87873329      -4.009E-07     97.02    <-- DIS
     242     384.87857726     384.87872876      -3.936E-07     97.42    <-- DIS
     243     384.87857564     384.87872439      -3.865E-07     97.83    <-- DIS
     244     384.87857414     384.87872019      -3.795E-07     98.23    <-- DIS
     245     384.87857273     384.87871613      -3.726E-07     98.64    <-- DIS
     246     384.87857143     384.87871222      -3.658E-07     99.04    <-- DIS
     247     384.87857022     384.87870845      -3.591E-07     99.45    <-- DIS
     248     384.87856910     384.87870481      -3.526E-07     99.85    <-- DIS
     249     384.87856806     384.87870130      -3.462E-07    100.26    <-- DIS
     250     384.87856711     384.87869792      -3.399E-07    100.66    <-- DIS
     251     384.87856623     384.87869466      -3.337E-07    101.06    <-- DIS
     252     384.87856543     384.87869152      -3.276E-07    101.47    <-- DIS
     253     384.87856470     384.87868849      -3.216E-07    101.87    <-- DIS
     254     384.87856403     384.87868557      -3.158E-07    102.28    <-- DIS
     255     384.87856343     384.87868275      -3.100E-07    102.68    <-- DIS
     256     384.87856289     384.87868003      -3.044E-07    103.08    <-- DIS
     257     384.87856241     384.87867741      -2.988E-07    103.48    <-- DIS
     258     384.87856199     384.87867489      -2.933E-07    103.89    <-- DIS
     259     384.87856161     384.87867245      -2.880E-07    104.29    <-- DIS
     260     384.87856129     384.87867010      -2.827E-07    104.69    <-- DIS
     261     384.87856101     384.87866784      -2.776E-07    105.10    <-- DIS
     262     384.87856078     384.87866565      -2.725E-07    105.51    <-- DIS
     263     384.87856059     384.87866355      -2.675E-07    105.91    <-- DIS
     264     384.87856045     384.87866151      -2.626E-07    106.32    <-- DIS
     265     384.87856034     384.87865956      -2.578E-07    106.72    <-- DIS
     266     384.87856027     384.87865767      -2.531E-07    107.13    <-- DIS
     267     384.87856023     384.87865585      -2.484E-07    107.53    <-- DIS
     268     384.87856022     384.87865409      -2.439E-07    107.94    <-- DIS
     269     384.87856025     384.87865239      -2.394E-07    108.34    <-- DIS
     270     384.87856030     384.87865076      -2.350E-07    108.75    <-- DIS
     271     384.87856038     384.87864918      -2.307E-07    109.15    <-- DIS
     272     384.87856049     384.87864766      -2.265E-07    109.55    <-- DIS
     273     384.87856063     384.87864620      -2.223E-07    109.95    <-- DIS
     274     384.87856078     384.87864478      -2.183E-07    110.36    <-- DIS
     275     384.87856096     384.87864342      -2.143E-07    110.77    <-- DIS
     276     384.87856116     384.87864211      -2.103E-07    111.17    <-- DIS
     277     384.87856137     384.87864084      -2.065E-07    111.59    <-- DIS
     278     384.87856161     384.87863961      -2.027E-07    111.99    <-- DIS
     279     384.87856186     384.87863843      -1.990E-07    112.41    <-- DIS
     280     384.87856213     384.87863730      -1.953E-07    112.81    <-- DIS
     281     384.87856241     384.87863620      -1.917E-07    113.22    <-- DIS
     282     384.87856271     384.87863514      -1.882E-07    113.63    <-- DIS
     283     384.87856302     384.87863412      -1.847E-07    114.03    <-- DIS
     284     384.87856334     384.87863313      -1.813E-07    114.44    <-- DIS
     285     384.87856367     384.87863218      -1.780E-07    114.84    <-- DIS
     286     384.87856402     384.87863127      -1.747E-07    115.25    <-- DIS
     287     384.87856437     384.87863038      -1.715E-07    115.66    <-- DIS
     288     384.87856473     384.87862953      -1.684E-07    116.06    <-- DIS
     289     384.87856510     384.87862871      -1.653E-07    116.47    <-- DIS
     290     384.87856547     384.87862791      -1.622E-07    116.87    <-- DIS
     291     384.87856586     384.87862715      -1.592E-07    117.27    <-- DIS
     292     384.87856625     384.87862641      -1.563E-07    117.68    <-- DIS
     293     384.87856664     384.87862570      -1.534E-07    118.08    <-- DIS
     294     384.87856704     384.87862501      -1.506E-07    118.48    <-- DIS
     295     384.87856744     384.87862435      -1.478E-07    118.89    <-- DIS
     296     384.87856785     384.87862371      -1.451E-07    119.29    <-- DIS
     297     384.87856826     384.87862309      -1.425E-07    119.69    <-- DIS
     298     384.87856868     384.87862250      -1.398E-07    120.10    <-- DIS
     299     384.87856909     384.87862192      -1.373E-07    120.50    <-- DIS
     300     384.87856951     384.87862137      -1.347E-07    120.91    <-- DIS
     301     384.87856993     384.87862083      -1.322E-07    121.31    <-- DIS
     302     384.87857035     384.87862032      -1.298E-07    121.72    <-- DIS
     303     384.87857078     384.87861982      -1.274E-07    122.12    <-- DIS
     304     384.87857120     384.87861934      -1.251E-07    122.53    <-- DIS
     305     384.87857162     384.87861888      -1.228E-07    122.94    <-- DIS
     306     384.87857205     384.87861843      -1.205E-07    123.35    <-- DIS
     307     384.87857247     384.87861800      -1.183E-07    123.75    <-- DIS
     308     384.87857289     384.87861758      -1.161E-07    124.16    <-- DIS
     309     384.87857332     384.87861718      -1.140E-07    124.56    <-- DIS
     310     384.87857374     384.87861680      -1.119E-07    124.97    <-- DIS
     311     384.87857416     384.87861642      -1.098E-07    125.38    <-- DIS
     312     384.87857458     384.87861606      -1.078E-07    125.78    <-- DIS
     313     384.87857499     384.87861571      -1.058E-07    126.18    <-- DIS
     314     384.87857541     384.87861538      -1.039E-07    126.59    <-- DIS
     315     384.87857582     384.87861505      -1.019E-07    127.00    <-- DIS
     316     384.87857623     384.87861474      -1.001E-07    127.40    <-- DIS
     317     384.87857664     384.87861444      -9.822E-08    127.81    <-- DIS
     318     384.87857704     384.87861415      -9.641E-08    128.21    <-- DIS
     319     384.87857745     384.87861387      -9.463E-08    128.63    <-- DIS
     320     384.87857785     384.87861360      -9.289E-08    129.03    <-- DIS
     321     384.87857825     384.87861334      -9.118E-08    129.43    <-- DIS
     322     384.87857864     384.87861309      -8.950E-08    129.84    <-- DIS
     323     384.87857903     384.87861284      -8.785E-08    130.24    <-- DIS
     324     384.87857942     384.87861261      -8.623E-08    130.65    <-- DIS
     325     384.87857980     384.87861238      -8.464E-08    131.05    <-- DIS
     326     384.87858019     384.87861216      -8.308E-08    131.46    <-- DIS
     327     384.87858056     384.87861195      -8.155E-08    131.86    <-- DIS
     328     384.87858094     384.87861175      -8.005E-08    132.27    <-- DIS
     329     384.87858131     384.87861155      -7.857E-08    132.68    <-- DIS
     330     384.87858168     384.87861136      -7.712E-08    133.08    <-- DIS
     331     384.87858204     384.87861118      -7.570E-08    133.49    <-- DIS
     332     384.87858240     384.87861100      -7.431E-08    133.90    <-- DIS
     333     384.87858276     384.87861083      -7.294E-08    134.30    <-- DIS
     334     384.87858311     384.87861067      -7.159E-08    134.71    <-- DIS
     335     384.87858346     384.87861051      -7.027E-08    135.11    <-- DIS
     336     384.87858381     384.87861035      -6.898E-08    135.51    <-- DIS
     337     384.87858415     384.87861021      -6.771E-08    135.92    <-- DIS
     338     384.87858448     384.87861006      -6.646E-08    136.32    <-- DIS
     339     384.87858482     384.87860993      -6.524E-08    136.73    <-- DIS
     340     384.87858515     384.87860979      -6.403E-08    137.13    <-- DIS
     341     384.87858547     384.87860966      -6.285E-08    137.53    <-- DIS
     342     384.87858579     384.87860954      -6.170E-08    137.94    <-- DIS
     343     384.87858611     384.87860942      -6.056E-08    138.35    <-- DIS
     344     384.87858643     384.87860931      -5.944E-08    138.76    <-- DIS
     345     384.87858674     384.87860919      -5.835E-08    139.16    <-- DIS
     346     384.87858704     384.87860909      -5.727E-08    139.56    <-- DIS
     347     384.87858735     384.87860898      -5.622E-08    139.97    <-- DIS
     348     384.87858764     384.87860888      -5.518E-08    140.38    <-- DIS
     349     384.87858794     384.87860879      -5.417E-08    140.78    <-- DIS
     350     384.87858823     384.87860869      -5.317E-08    141.19    <-- DIS
     351     384.87858852     384.87860860      -5.219E-08    141.59    <-- DIS
     352     384.87858880     384.87860852      -5.123E-08    142.00    <-- DIS
     353     384.87858908     384.87860843      -5.029E-08    142.40    <-- DIS
     354     384.87858935     384.87860835      -4.936E-08    142.81    <-- DIS
     355     384.87858962     384.87860827      -4.845E-08    143.22    <-- DIS
     356     384.87858989     384.87860820      -4.756E-08    143.63    <-- DIS
     357     384.87859016     384.87860812      -4.668E-08    144.03    <-- DIS
     358     384.87859042     384.87860805      -4.582E-08    144.44    <-- DIS
     359     384.87859067     384.87860799      -4.498E-08    144.84    <-- DIS
     360     384.87859093     384.87860792      -4.415E-08    145.25    <-- DIS
     361     384.87859118     384.87860786      -4.334E-08    145.65    <-- DIS
     362     384.87859142     384.87860780      -4.254E-08    146.06    <-- DIS
     363     384.87859166     384.87860774      -4.176E-08    146.46    <-- DIS
     364     384.87859190     384.87860768      -4.099E-08    146.87    <-- DIS
     365     384.87859214     384.87860762      -4.024E-08    147.27    <-- DIS
     366     384.87859237     384.87860757      -3.949E-08    147.68    <-- DIS
     367     384.87859260     384.87860752      -3.877E-08    148.08    <-- DIS
     368     384.87859282     384.87860747      -3.805E-08    148.49    <-- DIS
     369     384.87859305     384.87860742      -3.735E-08    148.90    <-- DIS
     370     384.87859326     384.87860738      -3.667E-08    149.30    <-- DIS
     371     384.87859348     384.87860733      -3.599E-08    149.71    <-- DIS
     372     384.87859369     384.87860729      -3.533E-08    150.11    <-- DIS
     373     384.87859390     384.87860725      -3.468E-08    150.52    <-- DIS
     374     384.87859410     384.87860721      -3.404E-08    150.92    <-- DIS
     375     384.87859431     384.87860717      -3.342E-08    151.32    <-- DIS
     376     384.87859451     384.87860713      -3.280E-08    151.73    <-- DIS
     377     384.87859470     384.87860710      -3.220E-08    152.14    <-- DIS
     378     384.87859490     384.87860706      -3.161E-08    152.54    <-- DIS
     379     384.87859509     384.87860703      -3.103E-08    152.95    <-- DIS
     380     384.87859527     384.87860699      -3.046E-08    153.35    <-- DIS
     381     384.87859546     384.87860696      -2.990E-08    153.76    <-- DIS
     382     384.87859564     384.87860693      -2.935E-08    154.17    <-- DIS
     383     384.87859582     384.87860690      -2.881E-08    154.57    <-- DIS
     384     384.87859599     384.87860687      -2.828E-08    154.97    <-- DIS
     385     384.87859616     384.87860685      -2.776E-08    155.38    <-- DIS
     386     384.87859633     384.87860682      -2.725E-08    155.78    <-- DIS
     387     384.87859650     384.87860680      -2.675E-08    156.19    <-- DIS
     388     384.87859667     384.87860677      -2.626E-08    156.59    <-- DIS
     389     384.87859683     384.87860675      -2.577E-08    156.99    <-- DIS
     390     384.87859699     384.87860672      -2.530E-08    157.40    <-- DIS
     391     384.87859714     384.87860670      -2.484E-08    157.80    <-- DIS
     392     384.87859730     384.87860668      -2.438E-08    158.20    <-- DIS
     393     384.87859745     384.87860666      -2.393E-08    158.61    <-- DIS
     394     384.87859760     384.87860664      -2.349E-08    159.01    <-- DIS
     395     384.87859775     384.87860662      -2.306E-08    159.42    <-- DIS
     396     384.87859789     384.87860660      -2.264E-08    159.82    <-- DIS
     397     384.87859803     384.87860658      -2.222E-08    160.23    <-- DIS
     398     384.87859817     384.87860657      -2.181E-08    160.64    <-- DIS
     399     384.87859831     384.87860655      -2.141E-08    161.04    <-- DIS
     400     384.87859844     384.87860653      -2.102E-08    161.44    <-- DIS
     401     384.87859858     384.87860652      -2.063E-08    161.85    <-- DIS
     402     384.87859871     384.87860650      -2.026E-08    162.26    <-- DIS
     403     384.87859884     384.87860649      -1.988E-08    162.66    <-- DIS
     404     384.87859896     384.87860648      -1.952E-08    163.07    <-- DIS
     405     384.87859909     384.87860646      -1.916E-08    163.47    <-- DIS
     406     384.87859921     384.87860645      -1.881E-08    163.88    <-- DIS
     407     384.87859933     384.87860644      -1.846E-08    164.28    <-- DIS
     408     384.87859945     384.87860642      -1.813E-08    164.69    <-- DIS
     409     384.87859956     384.87860641      -1.779E-08    165.09    <-- DIS
     410     384.87859968     384.87860640      -1.747E-08    165.50    <-- DIS
     411     384.87859979     384.87860639      -1.715E-08    165.90    <-- DIS
     412     384.87859990     384.87860638      -1.683E-08    166.31    <-- DIS
     413     384.87860001     384.87860637      -1.652E-08    166.71    <-- DIS
     414     384.87860012     384.87860636      -1.622E-08    167.12    <-- DIS
     415     384.87860022     384.87860635      -1.592E-08    167.52    <-- DIS
     416     384.87860032     384.87860634      -1.563E-08    167.93    <-- DIS
     417     384.87860042     384.87860633      -1.535E-08    168.33    <-- DIS
     418     384.87860052     384.87860632      -1.506E-08    168.73    <-- DIS
     419     384.87860062     384.87860631      -1.479E-08    169.14    <-- DIS
     420     384.87860072     384.87860631      -1.452E-08    169.54    <-- DIS
     421     384.87860081     384.87860630      -1.425E-08    169.95    <-- DIS
     422     384.87860091     384.87860629      -1.399E-08    170.36    <-- DIS
     423     384.87860100     384.87860628      -1.373E-08    170.76    <-- DIS
     424     384.87860109     384.87860628      -1.348E-08    171.17    <-- DIS
     425     384.87860117     384.87860627      -1.324E-08    171.58    <-- DIS
     426     384.87860126     384.87860626      -1.299E-08    171.98    <-- DIS
     427     384.87860135     384.87860626      -1.276E-08    172.38    <-- DIS
     428     384.87860143     384.87860625      -1.252E-08    172.79    <-- DIS
     429     384.87860151     384.87860624      -1.229E-08    173.19    <-- DIS
     430     384.87860159     384.87860624      -1.207E-08    173.60    <-- DIS
     431     384.87860167     384.87860623      -1.185E-08    174.00    <-- DIS
     432     384.87860175     384.87860623      -1.163E-08    174.41    <-- DIS
     433     384.87860183     384.87860622      -1.142E-08    174.82    <-- DIS
     434     384.87860190     384.87860622      -1.121E-08    175.22    <-- DIS
     435     384.87860198     384.87860621      -1.100E-08    175.63    <-- DIS
     436     384.87860205     384.87860621      -1.080E-08    176.03    <-- DIS
     437     384.87860212     384.87860620      -1.061E-08    176.44    <-- DIS
     438     384.87860219     384.87860620      -1.041E-08    176.84    <-- DIS
     439     384.87860226     384.87860620      -1.022E-08    177.25    <-- DIS
     440     384.87860233     384.87860619      -1.003E-08    177.65    <-- DIS
     441     384.87860240     384.87860619      -9.851E-09    178.06    <-- DIS
     442     384.87860246     384.87860618      -9.671E-09    178.46    <-- DIS
     443     384.87860253     384.87860618      -9.494E-09    178.87    <-- DIS
     444     384.87860259     384.87860618      -9.321E-09    179.27    <-- DIS
     445     384.87860265     384.87860617      -9.151E-09    179.68    <-- DIS
     446     384.87860271     384.87860617      -8.984E-09    180.08    <-- DIS
     447     384.87860277     384.87860617      -8.820E-09    180.48    <-- DIS
     448     384.87860283     384.87860616      -8.658E-09    180.89    <-- DIS
     449     384.87860289     384.87860616      -8.500E-09    181.30    <-- DIS
     450     384.87860295     384.87860616      -8.345E-09    181.70    <-- DIS
     451     384.87860300     384.87860615      -8.193E-09    182.11    <-- DIS
     452     384.87860306     384.87860615      -8.043E-09    182.51    <-- DIS
     453     384.87860311     384.87860615      -7.896E-09    182.92    <-- DIS
     454     384.87860316     384.87860615      -7.752E-09    183.32    <-- DIS
     455     384.87860322     384.87860614      -7.611E-09    183.73    <-- DIS
     456     384.87860327     384.87860614      -7.472E-09    184.14    <-- DIS
     457     384.87860332     384.87860614      -7.336E-09    184.54    <-- DIS
     458     384.87860337     384.87860614      -7.202E-09    184.95    <-- DIS
     459     384.87860341     384.87860614      -7.070E-09    185.35    <-- DIS
     460     384.87860346     384.87860613      -6.941E-09    185.75    <-- DIS
     461     384.87860351     384.87860613      -6.815E-09    186.16    <-- DIS
     462     384.87860355     384.87860613      -6.691E-09    186.56    <-- DIS
     463     384.87860360     384.87860613      -6.569E-09    186.96    <-- DIS
     464     384.87860364     384.87860613      -6.449E-09    187.37    <-- DIS
     465     384.87860369     384.87860612      -6.331E-09    187.77    <-- DIS
     466     384.87860373     384.87860612      -6.216E-09    188.18    <-- DIS
     467     384.87860377     384.87860612      -6.103E-09    188.58    <-- DIS
     468     384.87860381     384.87860612      -5.991E-09    188.98    <-- DIS
     469     384.87860385     384.87860612      -5.882E-09    189.39    <-- DIS
     470     384.87860389     384.87860612      -5.775E-09    189.79    <-- DIS
     471     384.87860393     384.87860612      -5.670E-09    190.20    <-- DIS
     472     384.87860397     384.87860611      -5.567E-09    190.60    <-- DIS
     473     384.87860401     384.87860611      -5.465E-09    191.01    <-- DIS
     474     384.87860405     384.87860611      -5.366E-09    191.41    <-- DIS
     475     384.87860408     384.87860611      -5.268E-09    191.82    <-- DIS
     476     384.87860412     384.87860611      -5.172E-09    192.23    <-- DIS
     477     384.87860415     384.87860611      -5.078E-09    192.63    <-- DIS
     478     384.87860419     384.87860611      -4.986E-09    193.04    <-- DIS
     479     384.87860422     384.87860611      -4.895E-09    193.45    <-- DIS
     480     384.87860425     384.87860610      -4.806E-09    193.85    <-- DIS
     481     384.87860429     384.87860610      -4.718E-09    194.26    <-- DIS
     482     384.87860432     384.87860610      -4.633E-09    194.66    <-- DIS
     483     384.87860435     384.87860610      -4.548E-09    195.07    <-- DIS
     484     384.87860438     384.87860610      -4.466E-09    195.48    <-- DIS
     485     384.87860441     384.87860610      -4.384E-09    195.88    <-- DIS
     486     384.87860444     384.87860610      -4.305E-09    196.29    <-- DIS
     487     384.87860447     384.87860610      -4.226E-09    196.69    <-- DIS
     488     384.87860450     384.87860610      -4.149E-09    197.10    <-- DIS
     489     384.87860453     384.87860610      -4.074E-09    197.50    <-- DIS
     490     384.87860456     384.87860610      -4.000E-09    197.91    <-- DIS
     491     384.87860458     384.87860610      -3.927E-09    198.32    <-- DIS
     492     384.87860461     384.87860609      -3.856E-09    198.72    <-- DIS
     493     384.87860464     384.87860609      -3.786E-09    199.13    <-- DIS
     494     384.87860466     384.87860609      -3.717E-09    199.53    <-- DIS
     495     384.87860469     384.87860609      -3.650E-09    199.94    <-- DIS
     496     384.87860471     384.87860609      -3.583E-09    200.34    <-- DIS
     497     384.87860474     384.87860609      -3.518E-09    200.75    <-- DIS
     498     384.87860476     384.87860609      -3.454E-09    201.16    <-- DIS
     499     384.87860478     384.87860609      -3.392E-09    201.56    <-- DIS
     500     384.87860481     384.87860609      -3.330E-09    201.97    <-- DIS
     501     384.87860483     384.87860609      -3.270E-09    202.37    <-- DIS
     502     384.87860485     384.87860609      -3.210E-09    202.78    <-- DIS
     503     384.87860488     384.87860609      -3.152E-09    203.19    <-- DIS
     504     384.87860490     384.87860609      -3.095E-09    203.59    <-- DIS
     505     384.87860492     384.87860609      -3.039E-09    204.00    <-- DIS
     506     384.87860494     384.87860609      -2.984E-09    204.41    <-- DIS
     507     384.87860496     384.87860609      -2.929E-09    204.81    <-- DIS
     508     384.87860498     384.87860609      -2.876E-09    205.22    <-- DIS
     509     384.87860500     384.87860609      -2.824E-09    205.63    <-- DIS
     510     384.87860502     384.87860609      -2.773E-09    206.02    <-- DIS
     511     384.87860504     384.87860608      -2.723E-09    206.43    <-- DIS
     512     384.87860506     384.87860608      -2.673E-09    206.83    <-- DIS
     513     384.87860507     384.87860608      -2.625E-09    207.24    <-- DIS
     514     384.87860509     384.87860608      -2.577E-09    207.64    <-- DIS
     515     384.87860511     384.87860608      -2.531E-09    208.05    <-- DIS
     516     384.87860513     384.87860608      -2.485E-09    208.46    <-- DIS
     517     384.87860514     384.87860608      -2.440E-09    208.86    <-- DIS
     518     384.87860516     384.87860608      -2.396E-09    209.27    <-- DIS
     519     384.87860518     384.87860608      -2.352E-09    209.67    <-- DIS
     520     384.87860519     384.87860608      -2.309E-09    210.08    <-- DIS
     521     384.87860521     384.87860608      -2.268E-09    210.48    <-- DIS
     522     384.87860522     384.87860608      -2.227E-09    210.89    <-- DIS
     523     384.87860524     384.87860608      -2.186E-09    211.29    <-- DIS
     524     384.87860526     384.87860608      -2.147E-09    211.70    <-- DIS
     525     384.87860527     384.87860608      -2.108E-09    212.10    <-- DIS
     526     384.87860528     384.87860608      -2.070E-09    212.50    <-- DIS
     527     384.87860530     384.87860608      -2.032E-09    212.91    <-- DIS
     528     384.87860531     384.87860608      -1.995E-09    213.32    <-- DIS
     529     384.87860533     384.87860608      -1.959E-09    213.72    <-- DIS
     530     384.87860534     384.87860608      -1.924E-09    214.13    <-- DIS
     531     384.87860535     384.87860608      -1.889E-09    214.53    <-- DIS
     532     384.87860537     384.87860608      -1.855E-09    214.94    <-- DIS
     533     384.87860538     384.87860608      -1.821E-09    215.34    <-- DIS
     534     384.87860539     384.87860608      -1.788E-09    215.75    <-- DIS
     535     384.87860540     384.87860608      -1.756E-09    216.15    <-- DIS
     536     384.87860542     384.87860608      -1.724E-09    216.56    <-- DIS
     537     384.87860543     384.87860608      -1.693E-09    216.96    <-- DIS
     538     384.87860544     384.87860608      -1.663E-09    217.36    <-- DIS
     539     384.87860545     384.87860608      -1.633E-09    217.77    <-- DIS
     540     384.87860546     384.87860608      -1.603E-09    218.17    <-- DIS
     541     384.87860547     384.87860608      -1.574E-09    218.57    <-- DIS
     542     384.87860548     384.87860608      -1.546E-09    218.97    <-- DIS
     543     384.87860549     384.87860608      -1.518E-09    219.37    <-- DIS
     544     384.87860550     384.87860608      -1.490E-09    219.77    <-- DIS
     545     384.87860551     384.87860608      -1.463E-09    220.18    <-- DIS
     546     384.87860552     384.87860608      -1.437E-09    220.58    <-- DIS
     547     384.87860553     384.87860608      -1.411E-09    220.98    <-- DIS
     548     384.87860554     384.87860608      -1.386E-09    221.38    <-- DIS
     549     384.87860555     384.87860608      -1.361E-09    221.78    <-- DIS
     550     384.87860556     384.87860608      -1.336E-09    222.19    <-- DIS
     551     384.87860557     384.87860608      -1.312E-09    222.59    <-- DIS
     552     384.87860558     384.87860608      -1.288E-09    222.99    <-- DIS
     553     384.87860559     384.87860608      -1.265E-09    223.39    <-- DIS
     554     384.87860560     384.87860608      -1.242E-09    223.79    <-- DIS
     555     384.87860561     384.87860608      -1.220E-09    224.19    <-- DIS
     556     384.87860562     384.87860608      -1.198E-09    224.59    <-- DIS
     557     384.87860562     384.87860608      -1.176E-09    224.99    <-- DIS
     558     384.87860563     384.87860608      -1.155E-09    225.40    <-- DIS
     559     384.87860564     384.87860608      -1.134E-09    225.80    <-- DIS
     560     384.87860565     384.87860608      -1.114E-09    226.21    <-- DIS
     561     384.87860566     384.87860608      -1.094E-09    226.61    <-- DIS
     562     384.87860566     384.87860608      -1.074E-09    227.01    <-- DIS
     563     384.87860567     384.87860608      -1.055E-09    227.41    <-- DIS
     564     384.87860568     384.87860608      -1.036E-09    227.81    <-- DIS
     565     384.87860568     384.87860608      -1.017E-09    228.22    <-- DIS
     566     384.87860569     384.87860608      -9.987E-10    228.62    <-- DIS
     567     384.87860570     384.87860608      -9.807E-10    229.02    <-- DIS
     568     384.87860571     384.87860608      -9.630E-10    229.42    <-- DIS
     569     384.87860571     384.87860608      -9.457E-10    229.82    <-- DIS
     570     384.87860572     384.87860608      -9.287E-10    230.22    <-- DIS
     571     384.87860572     384.87860608      -9.119E-10    230.63    <-- DIS
     572     384.87860573     384.87860608      -8.956E-10    231.03    <-- DIS
     573     384.87860574     384.87860608      -8.795E-10    231.43    <-- DIS
     574     384.87860574     384.87860608      -8.636E-10    231.84    <-- DIS
     575     384.87860575     384.87860608      -8.481E-10    232.24    <-- DIS
     576     384.87860576     384.87860608      -8.329E-10    232.64    <-- DIS
     577     384.87860576     384.87860608      -8.178E-10    233.04    <-- DIS
     578     384.87860577     384.87860608      -8.031E-10    233.44    <-- DIS
     579     384.87860577     384.87860608      -7.887E-10    233.85    <-- DIS
     580     384.87860578     384.87860608      -7.745E-10    234.25    <-- DIS
     581     384.87860578     384.87860608      -7.606E-10    234.65    <-- DIS
     582     384.87860579     384.87860608      -7.469E-10    235.05    <-- DIS
     583     384.87860579     384.87860608      -7.335E-10    235.46    <-- DIS
     584     384.87860580     384.87860608      -7.202E-10    235.86    <-- DIS
     585     384.87860580     384.87860608      -7.074E-10    236.26    <-- DIS
     586     384.87860581     384.87860608      -6.946E-10    236.66    <-- DIS
     587     384.87860581     384.87860608      -6.822E-10    237.06    <-- DIS
     588     384.87860582     384.87860608      -6.699E-10    237.47    <-- DIS
     589     384.87860582     384.87860608      -6.579E-10    237.87    <-- DIS
     590     384.87860583     384.87860608      -6.461E-10    238.27    <-- DIS
     591     384.87860583     384.87860608      -6.344E-10    238.68    <-- DIS
     592     384.87860584     384.87860608      -6.231E-10    239.09    <-- DIS
     593     384.87860584     384.87860608      -6.119E-10    239.49    <-- DIS
     594     384.87860584     384.87860608      -6.009E-10    239.89    <-- DIS
     595     384.87860585     384.87860608      -5.901E-10    240.29    <-- DIS
     596     384.87860585     384.87860608      -5.796E-10    240.70    <-- DIS
     597     384.87860586     384.87860607      -5.692E-10    241.10    <-- DIS
     598     384.87860586     384.87860607      -5.589E-10    241.50    <-- DIS
     599     384.87860586     384.87860607      -5.489E-10    241.90    <-- DIS
     600     384.87860587     384.87860607      -5.390E-10    242.30    <-- DIS
     601     384.87860587     384.87860607      -5.294E-10    242.71    <-- DIS
     602     384.87860587     384.87860607      -5.199E-10    243.11    <-- DIS
     603     384.87860588     384.87860607      -5.106E-10    243.51    <-- DIS
     604     384.87860588     384.87860607      -5.014E-10    243.91    <-- DIS
     605     384.87860589     384.87860607      -4.925E-10    244.31    <-- DIS
     606     384.87860589     384.87860607      -4.836E-10    244.71    <-- DIS
     607     384.87860589     384.87860607      -4.749E-10    245.12    <-- DIS
     608     384.87860590     384.87860607      -4.664E-10    245.52    <-- DIS
     609     384.87860590     384.87860607      -4.581E-10    245.92    <-- DIS
     610     384.87860590     384.87860607      -4.498E-10    246.33    <-- DIS
     611     384.87860590     384.87860607      -4.418E-10    246.73    <-- DIS
     612     384.87860591     384.87860607      -4.339E-10    247.13    <-- DIS
     613     384.87860591     384.87860607      -4.261E-10    247.54    <-- DIS
     614     384.87860591     384.87860607      -4.185E-10    247.94    <-- DIS
     615     384.87860592     384.87860607      -4.110E-10    248.34    <-- DIS
     616     384.87860592     384.87860607      -4.036E-10    248.75    <-- DIS
     617     384.87860592     384.87860607      -3.964E-10    249.15    <-- DIS
     618     384.87860592     384.87860607      -3.893E-10    249.55    <-- DIS
     619     384.87860593     384.87860607      -3.823E-10    249.95    <-- DIS
     620     384.87860593     384.87860607      -3.755E-10    250.36    <-- DIS
     621     384.87860593     384.87860607      -3.688E-10    250.76    <-- DIS
     622     384.87860594     384.87860607      -3.622E-10    251.16    <-- DIS
     623     384.87860594     384.87860607      -3.557E-10    251.56    <-- DIS
     624     384.87860594     384.87860607      -3.494E-10    251.96    <-- DIS
     625     384.87860594     384.87860607      -3.431E-10    252.36    <-- DIS
     626     384.87860594     384.87860607      -3.370E-10    252.77    <-- DIS
     627     384.87860595     384.87860607      -3.310E-10    253.17    <-- DIS
     628     384.87860595     384.87860607      -3.250E-10    253.57    <-- DIS
     629     384.87860595     384.87860607      -3.193E-10    253.97    <-- DIS
     630     384.87860595     384.87860607      -3.135E-10    254.37    <-- DIS
     631     384.87860596     384.87860607      -3.079E-10    254.77    <-- DIS
     632     384.87860596     384.87860607      -3.024E-10    255.17    <-- DIS
     633     384.87860596     384.87860607      -2.970E-10    255.57    <-- DIS
     634     384.87860596     384.87860607      -2.917E-10    255.97    <-- DIS
     635     384.87860596     384.87860607      -2.865E-10    256.38    <-- DIS
     636     384.87860597     384.87860607      -2.813E-10    256.78    <-- DIS
     637     384.87860597     384.87860607      -2.764E-10    257.19    <-- DIS
     638     384.87860597     384.87860607      -2.714E-10    257.59    <-- DIS
     639     384.87860597     384.87860607      -2.666E-10    257.99    <-- DIS
     640     384.87860597     384.87860607      -2.618E-10    258.39    <-- DIS
     641     384.87860598     384.87860607      -2.572E-10    258.80    <-- DIS
     642     384.87860598     384.87860607      -2.525E-10    259.20    <-- DIS
     643     384.87860598     384.87860607      -2.480E-10    259.61    <-- DIS
     644     384.87860598     384.87860607      -2.436E-10    260.01    <-- DIS
     645     384.87860598     384.87860607      -2.393E-10    260.42    <-- DIS
     646     384.87860598     384.87860607      -2.350E-10    260.82    <-- DIS
     647     384.87860599     384.87860607      -2.308E-10    261.22    <-- DIS
     648     384.87860599     384.87860607      -2.267E-10    261.63    <-- DIS
     649     384.87860599     384.87860607      -2.227E-10    262.03    <-- DIS
     650     384.87860599     384.87860607      -2.187E-10    262.43    <-- DIS
     651     384.87860599     384.87860607      -2.148E-10    262.84    <-- DIS
     652     384.87860599     384.87860607      -2.110E-10    263.24    <-- DIS
     653     384.87860599     384.87860607      -2.072E-10    263.64    <-- DIS
     654     384.87860600     384.87860607      -2.035E-10    264.05    <-- DIS
     655     384.87860600     384.87860607      -1.999E-10    264.44    <-- DIS
     656     384.87860600     384.87860607      -1.963E-10    264.85    <-- DIS
     657     384.87860600     384.87860607      -1.928E-10    265.25    <-- DIS
     658     384.87860600     384.87860607      -1.894E-10    265.65    <-- DIS
     659     384.87860600     384.87860607      -1.861E-10    266.05    <-- DIS
     660     384.87860600     384.87860607      -1.827E-10    266.45    <-- DIS
     661     384.87860601     384.87860607      -1.795E-10    266.85    <-- DIS
     662     384.87860601     384.87860607      -1.762E-10    267.25    <-- DIS
     663     384.87860601     384.87860607      -1.731E-10    267.66    <-- DIS
     664     384.87860601     384.87860607      -1.700E-10    268.06    <-- DIS
     665     384.87860601     384.87860607      -1.670E-10    268.45    <-- DIS
     666     384.87860601     384.87860607      -1.641E-10    268.86    <-- DIS
     667     384.87860601     384.87860607      -1.611E-10    269.26    <-- DIS
     668     384.87860601     384.87860607      -1.582E-10    269.66    <-- DIS
     669     384.87860601     384.87860607      -1.555E-10    270.06    <-- DIS
     670     384.87860602     384.87860607      -1.527E-10    270.46    <-- DIS
     671     384.87860602     384.87860607      -1.500E-10    270.86    <-- DIS
     672     384.87860602     384.87860607      -1.473E-10    271.27    <-- DIS
     673     384.87860602     384.87860607      -1.447E-10    271.67    <-- DIS
     674     384.87860602     384.87860607      -1.421E-10    272.07    <-- DIS
     675     384.87860602     384.87860607      -1.396E-10    272.48    <-- DIS
     676     384.87860602     384.87860607      -1.371E-10    272.88    <-- DIS
     677     384.87860602     384.87860607      -1.347E-10    273.28    <-- DIS
     678     384.87860602     384.87860607      -1.323E-10    273.68    <-- DIS
     679     384.87860602     384.87860607      -1.299E-10    274.08    <-- DIS
     680     384.87860603     384.87860607      -1.276E-10    274.48    <-- DIS
     681     384.87860603     384.87860607      -1.254E-10    274.89    <-- DIS
     682     384.87860603     384.87860607      -1.231E-10    275.29    <-- DIS
     683     384.87860603     384.87860607      -1.210E-10    275.69    <-- DIS
     684     384.87860603     384.87860607      -1.187E-10    276.10    <-- DIS
     685     384.87860603     384.87860607      -1.167E-10    276.50    <-- DIS
     686     384.87860603     384.87860607      -1.146E-10    276.90    <-- DIS
     687     384.87860603     384.87860607      -1.126E-10    277.31    <-- DIS
     688     384.87860603     384.87860607      -1.106E-10    277.71    <-- DIS
     689     384.87860603     384.87860607      -1.086E-10    278.11    <-- DIS
     690     384.87860603     384.87860607      -1.067E-10    278.51    <-- DIS
     691     384.87860603     384.87860607      -1.048E-10    278.91    <-- DIS
     692     384.87860603     384.87860607      -1.029E-10    279.31    <-- DIS
     693     384.87860604     384.87860607      -1.011E-10    279.71    <-- DIS
     694     384.87860604     384.87860607      -9.926E-11    280.12    <-- DIS
     695     384.87860604     384.87860607      -9.752E-11    280.52    <-- DIS
     696     384.87860604     384.87860607      -9.581E-11    280.92    <-- DIS

             <<<      Delta < 1.000E-10  over  3 iterations     >>>
             <<< Disentanglement convergence criteria satisfied >>>

        Final Omega_I   384.87860607 (Ang^2)

 +----------------------------------------------------------------------------+

 Time to disentangle bands    295.958 (sec)

 Writing checkpoint file slab/GeTe.slab.chk... done

 
 *------------------------------- WANNIERISE ---------------------------------*
 +--------------------------------------------------------------------+<-- CONV
 | Iter  Delta Spread     RMS Gradient      Spread (Ang^2)      Time  |<-- CONV
 +--------------------------------------------------------------------+<-- CONV
 
 ------------------------------------------------------------------------------
 Initial State
  WF centre and spread    1  (  2.088853, -1.205988, 25.192744 )     1.44876561
  WF centre and spread    2  (  2.088853, -1.205988, 25.192744 )     1.44876565
  WF centre and spread    3  (  2.088873, -1.205997, 25.262541 )     2.87587404
  WF centre and spread    4  (  2.088873, -1.205997, 25.262542 )     2.87587418
  WF centre and spread    5  (  2.088894, -1.102041, 25.251064 )     2.63591848
  WF centre and spread    6  (  2.088894, -1.102041, 25.251064 )     2.63591931
  WF centre and spread    7  (  2.088874, -1.313188, 25.251044 )     2.63534440
  WF centre and spread    8  (  2.088874, -1.313188, 25.251045 )     2.63534535
  WF centre and spread    9  ( -2.088852,  1.205998, 23.693992 )     1.39890007
  WF centre and spread   10  ( -2.088852,  1.205998, 23.693991 )     1.39890007
  WF centre and spread   11  ( -2.088873,  1.206000, 23.720995 )     2.41981601
  WF centre and spread   12  ( -2.088873,  1.206000, 23.720995 )     2.41981711
  WF centre and spread   13  ( -2.088894,  1.177069, 23.687016 )     2.44423233
  WF centre and spread   14  ( -2.088894,  1.177069, 23.687016 )     2.44423329
  WF centre and spread   15  ( -2.088873,  1.235715, 23.686999 )     2.44324547
  WF centre and spread   16  ( -2.088873,  1.235715, 23.687000 )     2.44324622
  WF centre and spread   17  (  0.000000,  0.000008, 21.711733 )     1.46300662
  WF centre and spread   18  (  0.000000,  0.000008, 21.711733 )     1.46300661
  WF centre and spread   19  ( -0.000000,  0.000008, 21.701886 )     2.76476785
  WF centre and spread   20  ( -0.000000,  0.000008, 21.701886 )     2.76476803
  WF centre and spread   21  (  0.000000,  0.035645, 21.748141 )     2.73622817
  WF centre and spread   22  (  0.000000,  0.035646, 21.748141 )     2.73622928
  WF centre and spread   23  (  0.000000, -0.036626, 21.748133 )     2.73525402
  WF centre and spread   24  (  0.000000, -0.036627, 21.748132 )     2.73525618
  WF centre and spread   25  (  2.088853, -1.206005, 20.202682 )     1.36625211
  WF centre and spread   26  (  2.088853, -1.206005, 20.202682 )     1.36625219
  WF centre and spread   27  (  2.088874, -1.206015, 20.205310 )     2.42577792
  WF centre and spread   28  (  2.088874, -1.206015, 20.205310 )     2.42577935
  WF centre and spread   29  (  2.088894, -1.243375, 20.171860 )     2.42000137
  WF centre and spread   30  (  2.088894, -1.243376, 20.171860 )     2.42000225
  WF centre and spread   31  (  2.088873, -1.167707, 20.171856 )     2.41908919
  WF centre and spread   32  (  2.088873, -1.167707, 20.171857 )     2.41909004
  WF centre and spread   33  ( -2.088853,  1.206008, 18.218003 )     1.45386244
  WF centre and spread   34  ( -2.088853,  1.206008, 18.218003 )     1.45386257
  WF centre and spread   35  ( -2.088874,  1.206016, 18.211883 )     2.74716705
  WF centre and spread   36  ( -2.088874,  1.206016, 18.211883 )     2.74716621
  WF centre and spread   37  ( -2.088894,  1.250456, 18.251023 )     2.72488239
  WF centre and spread   38  ( -2.088894,  1.250457, 18.251023 )     2.72488325
  WF centre and spread   39  ( -2.088873,  1.160344, 18.251020 )     2.72396837
  WF centre and spread   40  ( -2.088873,  1.160344, 18.251020 )     2.72396942
  WF centre and spread   41  ( -0.000000, -0.000006, 16.709463 )     1.36911721
  WF centre and spread   42  ( -0.000000, -0.000006, 16.709463 )     1.36911731
  WF centre and spread   43  ( -0.000000, -0.000004, 16.719695 )     2.43996806
  WF centre and spread   44  (  0.000000, -0.000004, 16.719695 )     2.43996816
[...]
  WF centre and spread   14  ( -2.088894,  1.177069, 23.687016 )     2.44423329
  WF centre and spread   15  ( -2.088873,  1.235715, 23.686999 )     2.44324547
  WF centre and spread   16  ( -2.088873,  1.235715, 23.687000 )     2.44324622
  WF centre and spread   17  (  0.000000,  0.000008, 21.711733 )     1.46300662
  WF centre and spread   18  (  0.000000,  0.000008, 21.711733 )     1.46300661
  WF centre and spread   19  ( -0.000000,  0.000008, 21.701886 )     2.76476785
  WF centre and spread   20  ( -0.000000,  0.000008, 21.701886 )     2.76476803
  WF centre and spread   21  (  0.000000,  0.035645, 21.748141 )     2.73622817
  WF centre and spread   22  (  0.000000,  0.035646, 21.748141 )     2.73622928
  WF centre and spread   23  (  0.000000, -0.036626, 21.748133 )     2.73525402
  WF centre and spread   24  (  0.000000, -0.036627, 21.748132 )     2.73525618
  WF centre and spread   25  (  2.088853, -1.206005, 20.202682 )     1.36625211
  WF centre and spread   26  (  2.088853, -1.206005, 20.202682 )     1.36625219
  WF centre and spread   27  (  2.088874, -1.206015, 20.205310 )     2.42577792
  WF centre and spread   28  (  2.088874, -1.206015, 20.205310 )     2.42577935
  WF centre and spread   29  (  2.088894, -1.243375, 20.171860 )     2.42000137
  WF centre and spread   30  (  2.088894, -1.243376, 20.171860 )     2.42000225
  WF centre and spread   31  (  2.088873, -1.167707, 20.171856 )     2.41908919
  WF centre and spread   32  (  2.088873, -1.167707, 20.171857 )     2.41909004
  WF centre and spread   33  ( -2.088853,  1.206008, 18.218003 )     1.45386244
  WF centre and spread   34  ( -2.088853,  1.206008, 18.218003 )     1.45386257
  WF centre and spread   35  ( -2.088874,  1.206016, 18.211883 )     2.74716705
  WF centre and spread   36  ( -2.088874,  1.206016, 18.211883 )     2.74716621
  WF centre and spread   37  ( -2.088894,  1.250456, 18.251023 )     2.72488239
  WF centre and spread   38  ( -2.088894,  1.250457, 18.251023 )     2.72488325
  WF centre and spread   39  ( -2.088873,  1.160344, 18.251020 )     2.72396837
  WF centre and spread   40  ( -2.088873,  1.160344, 18.251020 )     2.72396942
  WF centre and spread   41  ( -0.000000, -0.000006, 16.709463 )     1.36911721
  WF centre and spread   42  ( -0.000000, -0.000006, 16.709463 )     1.36911731
  WF centre and spread   43  ( -0.000000, -0.000004, 16.719695 )     2.43996806
  WF centre and spread   44  (  0.000000, -0.000004, 16.719695 )     2.43996816
  WF centre and spread   45  (  0.000000, -0.037354, 16.677199 )     2.41721301
  WF centre and spread   46  (  0.000000, -0.037353, 16.677199 )     2.41721295
  WF centre and spread   47  (  0.000000,  0.038307, 16.677199 )     2.41631863
  WF centre and spread   48  (  0.000000,  0.038307, 16.677199 )     2.41631874
  WF centre and spread   49  (  2.088853, -1.205993, 14.725660 )     1.45380880
  WF centre and spread   50  (  2.088853, -1.205993, 14.725660 )     1.45380877
  WF centre and spread   51  (  2.088873, -1.206007, 14.717259 )     2.74282357
  WF centre and spread   52  (  2.088873, -1.206007, 14.717259 )     2.74282361
  WF centre and spread   53  (  2.088894, -1.162709, 14.757455 )     2.71810049
  WF centre and spread   54  (  2.088894, -1.162709, 14.757455 )     2.71809962
  WF centre and spread   55  (  2.088873, -1.250526, 14.757453 )     2.71718734
  WF centre and spread   56  (  2.088873, -1.250527, 14.757453 )     2.71718629
  WF centre and spread   57  ( -2.088853,  1.205993, 13.217273 )     1.36742941
  WF centre and spread   58  ( -2.088853,  1.205993, 13.217273 )     1.36742937
  WF centre and spread   59  ( -2.088873,  1.206008, 13.226337 )     2.42757186
  WF centre and spread   60  ( -2.088873,  1.206008, 13.226337 )     2.42757225
  WF centre and spread   61  ( -2.088894,  1.166146, 13.185451 )     2.41275738
  WF centre and spread   62  ( -2.088894,  1.166146, 13.185452 )     2.41275716
  WF centre and spread   63  ( -2.088873,  1.246905, 13.185451 )     2.41187503
  WF centre and spread   64  ( -2.088873,  1.246905, 13.185451 )     2.41187511
  WF centre and spread   65  (  0.000000,  0.000007, 11.232564 )     1.45163450
  WF centre and spread   66  (  0.000000,  0.000007, 11.232564 )     1.45163454
  WF centre and spread   67  (  0.000000,  0.000004, 11.221220 )     2.74170491
  WF centre and spread   68  (  0.000000,  0.000004, 11.221219 )     2.74170513
  WF centre and spread   69  ( -0.000001,  0.043231, 11.264753 )     2.71759332
  WF centre and spread   70  ( -0.000001,  0.043231, 11.264753 )     2.71759385
  WF centre and spread   71  (  0.000000, -0.044429, 11.264751 )     2.71666701
  WF centre and spread   72  (  0.000000, -0.044429, 11.264751 )     2.71666766
  WF centre and spread   73  (  2.088853, -1.206006,  9.724120 )     1.36717977
  WF centre and spread   74  (  2.088853, -1.206006,  9.724120 )     1.36717983
  WF centre and spread   75  (  2.088873, -1.206015,  9.734052 )     2.42823370
  WF centre and spread   76  (  2.088873, -1.206015,  9.734053 )     2.42823352
  WF centre and spread   77  (  2.088894, -1.244710,  9.691477 )     2.41100902
  WF centre and spread   78  (  2.088894, -1.244710,  9.691477 )     2.41100904
  WF centre and spread   79  (  2.088873, -1.166336,  9.691477 )     2.41012991
  WF centre and spread   80  (  2.088873, -1.166336,  9.691477 )     2.41012998
  WF centre and spread   81  ( -2.088853,  1.206008,  7.740109 )     1.45093274
  WF centre and spread   82  ( -2.088853,  1.206008,  7.740109 )     1.45093273
  WF centre and spread   83  ( -2.088873,  1.206016,  7.726451 )     2.73941430
  WF centre and spread   84  ( -2.088873,  1.206016,  7.726451 )     2.73941426
  WF centre and spread   85  ( -2.088894,  1.251045,  7.769977 )     2.71999365
  WF centre and spread   86  ( -2.088894,  1.251045,  7.769977 )     2.71999357
  WF centre and spread   87  ( -2.088873,  1.159744,  7.769976 )     2.71907967
  WF centre and spread   88  ( -2.088873,  1.159744,  7.769976 )     2.71907968
  WF centre and spread   89  ( -0.000000, -0.000006,  6.231724 )     1.36760003
  WF centre and spread   90  ( -0.000000, -0.000006,  6.231724 )     1.36760002
  WF centre and spread   91  ( -0.000000, -0.000003,  6.242416 )     2.42732876
  WF centre and spread   92  ( -0.000000, -0.000003,  6.242416 )     2.42732915
  WF centre and spread   93  (  0.000000, -0.039803,  6.198786 )     2.40842223
  WF centre and spread   94  (  0.000000, -0.039803,  6.198786 )     2.40842191
  WF centre and spread   95  ( -0.000000,  0.040819,  6.198786 )     2.40753223
  WF centre and spread   96  ( -0.000000,  0.040819,  6.198786 )     2.40753173
  WF centre and spread   97  (  2.088853, -1.205992,  4.247111 )     1.45080888
  WF centre and spread   98  (  2.088853, -1.205992,  4.247111 )     1.45080889
  WF centre and spread   99  (  2.088873, -1.206007,  4.230225 )     2.73596852
  WF centre and spread  100  (  2.088873, -1.206007,  4.230225 )     2.73596826
  WF centre and spread  101  (  2.088894, -1.161273,  4.277206 )     2.72356409
  WF centre and spread  102  (  2.088894, -1.161273,  4.277206 )     2.72356409
  WF centre and spread  103  (  2.088873, -1.252003,  4.277204 )     2.72264717
  WF centre and spread  104  (  2.088873, -1.252003,  4.277204 )     2.72264701
  WF centre and spread  105  ( -2.088853,  1.205993,  2.738589 )     1.36791241
  WF centre and spread  106  ( -2.088853,  1.205993,  2.738589 )     1.36791241
  WF centre and spread  107  ( -2.088873,  1.206008,  2.749676 )     2.42873871
  WF centre and spread  108  ( -2.088873,  1.206008,  2.749676 )     2.42873850
  WF centre and spread  109  ( -2.088894,  1.166493,  2.705940 )     2.40779115
  WF centre and spread  110  ( -2.088894,  1.166494,  2.705940 )     2.40779054
  WF centre and spread  111  ( -2.088873,  1.246552,  2.705940 )     2.40691214
  WF centre and spread  112  ( -2.088873,  1.246552,  2.705940 )     2.40691154
  WF centre and spread  113  (  0.000000,  0.000007,  0.754780 )     1.45048603
  WF centre and spread  114  (  0.000000,  0.000007,  0.754780 )     1.45048595
  WF centre and spread  115  ( -0.000000,  0.000005,  0.737508 )     2.73815998
  WF centre and spread  116  ( -0.000000,  0.000005,  0.737508 )     2.73815992
  WF centre and spread  117  ( -0.000000,  0.045165,  0.783748 )     2.72340076
  WF centre and spread  118  ( -0.000000,  0.045165,  0.783748 )     2.72339978
  WF centre and spread  119  ( -0.000000, -0.046420,  0.783746 )     2.72246935
  WF centre and spread  120  ( -0.000000, -0.046420,  0.783746 )     2.72246894
  WF centre and spread  121  (  2.088853, -1.206006, -0.754455 )     1.36776382
  WF centre and spread  122  (  2.088853, -1.206006, -0.754455 )     1.36776365
  WF centre and spread  123  (  2.088874, -1.206015, -0.742639 )     2.42814202
  WF centre and spread  124  (  2.088874, -1.206015, -0.742639 )     2.42814186
  WF centre and spread  125  (  2.088894, -1.245102, -0.786961 )     2.40981276
  WF centre and spread  126  (  2.088894, -1.245102, -0.786961 )     2.40981305
  WF centre and spread  127  (  2.088873, -1.165934, -0.786960 )     2.40893326
  WF centre and spread  128  (  2.088873, -1.165934, -0.786960 )     2.40893339
  WF centre and spread  129  ( -2.088853,  1.206008, -2.738325 )     1.45080001
  WF centre and spread  130  ( -2.088853,  1.206008, -2.738325 )     1.45080010
  WF centre and spread  131  ( -2.088873,  1.206017, -2.754941 )     2.73566504
  WF centre and spread  132  ( -2.088873,  1.206016, -2.754942 )     2.73566462
  WF centre and spread  133  ( -2.088894,  1.251529, -2.709391 )     2.72582067
  WF centre and spread  134  ( -2.088894,  1.251529, -2.709391 )     2.72582119
  WF centre and spread  135  ( -2.088874,  1.159242, -2.709392 )     2.72490086
  WF centre and spread  136  ( -2.088873,  1.159242, -2.709392 )     2.72490103
  WF centre and spread  137  ( -0.000000, -0.000006, -4.246898 )     1.36758564
  WF centre and spread  138  ( -0.000000, -0.000006, -4.246898 )     1.36758572
  WF centre and spread  139  ( -0.000000, -0.000004, -4.235109 )     2.42897514
  WF centre and spread  140  ( -0.000000, -0.000004, -4.235109 )     2.42897522
  WF centre and spread  141  (  0.000001, -0.039233, -4.280057 )     2.40987183
  WF centre and spread  142  (  0.000001, -0.039232, -4.280058 )     2.40987212
  WF centre and spread  143  (  0.000000,  0.040236, -4.280056 )     2.40897620
  WF centre and spread  144  (  0.000000,  0.040236, -4.280056 )     2.40897633
  WF centre and spread  145  (  2.088853, -1.205992, -6.231283 )     1.45121226
  WF centre and spread  146  (  2.088853, -1.205992, -6.231283 )     1.45121220
  WF centre and spread  147  (  2.088873, -1.206007, -6.250014 )     2.73449453
  WF centre and spread  148  (  2.088873, -1.206007, -6.250014 )     2.73449474
  WF centre and spread  149  (  2.088894, -1.160459, -6.202487 )     2.72189969
  WF centre and spread  150  (  2.088894, -1.160459, -6.202487 )     2.72189840
  WF centre and spread  151  (  2.088873, -1.252843, -6.202488 )     2.72098335
  WF centre and spread  152  (  2.088874, -1.252844, -6.202488 )     2.72098203
  WF centre and spread  153  ( -2.088853,  1.205993, -7.740028 )     1.36733769
  WF centre and spread  154  ( -2.088853,  1.205993, -7.740028 )     1.36733762
  WF centre and spread  155  ( -2.088873,  1.206008, -7.726655 )     2.42749004
  WF centre and spread  156  ( -2.088873,  1.206008, -7.726656 )     2.42749048
  WF centre and spread  157  ( -2.088894,  1.166638, -7.772554 )     2.41099500
  WF centre and spread  158  ( -2.088894,  1.166637, -7.772554 )     2.41099483
  WF centre and spread  159  ( -2.088873,  1.246403, -7.772553 )     2.41011131
  WF centre and spread  160  ( -2.088873,  1.246404, -7.772553 )     2.41011122
  WF centre and spread  161  (  0.000000,  0.000007, -9.723811 )     1.45103414
  WF centre and spread  162  (  0.000000,  0.000007, -9.723811 )     1.45103411
  WF centre and spread  163  (  0.000000,  0.000005, -9.745462 )     2.72849550
  WF centre and spread  164  (  0.000000,  0.000005, -9.745462 )     2.72849539
  WF centre and spread  165  ( -0.000000,  0.046860, -9.695491 )     2.72319292
  WF centre and spread  166  ( -0.000000,  0.046859, -9.695491 )     2.72319351
  WF centre and spread  167  ( -0.000000, -0.048159, -9.695492 )     2.72226042
  WF centre and spread  168  ( -0.000000, -0.048159, -9.695492 )     2.72226078
  WF centre and spread  169  (  2.088853, -1.206007,-11.232534 )     1.36714401
  WF centre and spread  170  (  2.088853, -1.206007,-11.232534 )     1.36714409
  WF centre and spread  171  (  2.088873, -1.206016,-11.219211 )     2.42812727
  WF centre and spread  172  (  2.088873, -1.206016,-11.219211 )     2.42812688
  WF centre and spread  173  (  2.088894, -1.245216,-11.264850 )     2.41000723
  WF centre and spread  174  (  2.088894, -1.245216,-11.264850 )     2.41000736
  WF centre and spread  175  (  2.088873, -1.165817,-11.264850 )     2.40912338
  WF centre and spread  176  (  2.088873, -1.165817,-11.264850 )     2.40912349
  WF centre and spread  177  ( -2.088853,  1.206008,-13.216798 )     1.45156655
  WF centre and spread  178  ( -2.088853,  1.206008,-13.216798 )     1.45156654
  WF centre and spread  179  ( -2.088873,  1.206016,-13.237719 )     2.73190480
  WF centre and spread  180  ( -2.088873,  1.206016,-13.237719 )     2.73190487
  WF centre and spread  181  ( -2.088894,  1.253959,-13.188295 )     2.71994494
  WF centre and spread  182  ( -2.088894,  1.253959,-13.188295 )     2.71994482
  WF centre and spread  183  ( -2.088873,  1.156746,-13.188297 )     2.71903216
  WF centre and spread  184  ( -2.088873,  1.156746,-13.188297 )     2.71903231
  WF centre and spread  185  ( -0.000000, -0.000007,-14.725713 )     1.36732369
  WF centre and spread  186  ( -0.000000, -0.000007,-14.725713 )     1.36732364
  WF centre and spread  187  ( -0.000000, -0.000004,-14.711719 )     2.43128479
  WF centre and spread  188  ( -0.000000, -0.000004,-14.711719 )     2.43128497
  WF centre and spread  189  (  0.000000, -0.039330,-14.756832 )     2.41334354
  WF centre and spread  190  (  0.000000, -0.039330,-14.756832 )     2.41334341
  WF centre and spread  191  (  0.000000,  0.040335,-14.756833 )     2.41244406
  WF centre and spread  192  (  0.000000,  0.040335,-14.756833 )     2.41244397
  WF centre and spread  193  (  2.088853, -1.205992,-16.708893 )     1.45005173
  WF centre and spread  194  (  2.088853, -1.205992,-16.708893 )     1.45005176
  WF centre and spread  195  (  2.088873, -1.206007,-16.733827 )     2.73462709
  WF centre and spread  196  (  2.088873, -1.206007,-16.733828 )     2.73462693
  WF centre and spread  197  (  2.088894, -1.157015,-16.681739 )     2.73189201
  WF centre and spread  198  (  2.088894, -1.157015,-16.681738 )     2.73189363
  WF centre and spread  199  (  2.088873, -1.256370,-16.681739 )     2.73095858
  WF centre and spread  200  (  2.088874, -1.256369,-16.681739 )     2.73095936
  WF centre and spread  201  ( -2.088853,  1.205992,-18.218097 )     1.36650227
  WF centre and spread  202  ( -2.088853,  1.205992,-18.218097 )     1.36650249
  WF centre and spread  203  ( -2.088873,  1.206006,-18.198865 )     2.48274047
  WF centre and spread  204  ( -2.088873,  1.206005,-18.198866 )     2.48274246
  WF centre and spread  205  ( -2.088894,  1.166241,-18.246259 )     2.40995983
  WF centre and spread  206  ( -2.088894,  1.166241,-18.246259 )     2.40996142
  WF centre and spread  207  ( -2.088873,  1.246813,-18.246257 )     2.40905478
  WF centre and spread  208  ( -2.088873,  1.246813,-18.246257 )     2.40905509
  WF centre and spread  209  (  0.000000,  0.000008,-20.202137 )     1.45998526
  WF centre and spread  210  (  0.000000,  0.000008,-20.202137 )     1.45998501
  WF centre and spread  211  ( -0.000002,  0.000000,-20.230804 )     2.79807566
  WF centre and spread  212  ( -0.000003, -0.000001,-20.230804 )     2.79807701
  WF centre and spread  213  (  0.000001,  0.056655,-20.180890 )     2.80842297
  WF centre and spread  214  (  0.000001,  0.056655,-20.180890 )     2.80842404
  WF centre and spread  215  (  0.000000, -0.058248,-20.180888 )     2.80745240
  WF centre and spread  216  ( -0.000000, -0.058248,-20.180888 )     2.80745466
  WF centre and spread  217  (  2.088853, -1.206008,-21.710785 )     1.37030224
  WF centre and spread  218  (  2.088853, -1.206008,-21.710785 )     1.37030242
  WF centre and spread  219  (  2.088873, -1.206022,-21.706238 )     2.58545446
  WF centre and spread  220  (  2.088873, -1.206022,-21.706238 )     2.58545239
  WF centre and spread  221  (  2.088892, -1.245061,-21.746731 )     2.48289578
  WF centre and spread  222  (  2.088891, -1.245061,-21.746732 )     2.48290199
  WF centre and spread  223  (  2.088873, -1.165934,-21.746719 )     2.48187007
  WF centre and spread  224  (  2.088874, -1.165934,-21.746719 )     2.48187604
  WF centre and spread  225  ( -2.088853,  1.205996,-23.694343 )     1.50821715
  WF centre and spread  226  ( -2.088853,  1.205996,-23.694343 )     1.50821695
  WF centre and spread  227  ( -2.088875,  1.206029,-23.705204 )     2.92806335
  WF centre and spread  228  ( -2.088875,  1.206028,-23.705204 )     2.92806575
  WF centre and spread  229  ( -2.088896,  1.222613,-23.711117 )     2.95105020
  WF centre and spread  230  ( -2.088895,  1.222612,-23.711119 )     2.95105907
  WF centre and spread  231  ( -2.088873,  1.188893,-23.711073 )     2.94982824
  WF centre and spread  232  ( -2.088874,  1.188894,-23.711074 )     2.94983052
  WF centre and spread  233  ( -0.000001, -0.000011,-25.192654 )     1.38187032
  WF centre and spread  234  ( -0.000001, -0.000011,-25.192654 )     1.38186961
  WF centre and spread  235  (  0.000000, -0.000011,-25.301947 )     2.46369136
  WF centre and spread  236  (  0.000000, -0.000011,-25.301947 )     2.46369101
  WF centre and spread  237  (  0.000000, -0.104545,-25.303262 )     2.37436238
  WF centre and spread  238  (  0.000000, -0.104544,-25.303263 )     2.37436421
  WF centre and spread  239  (  0.000000,  0.107491,-25.303219 )     2.37374667
  WF centre and spread  240  (  0.000000,  0.107490,-25.303220 )     2.37374764
  Sum of centres and spreads ( -0.000014, -0.006920, -0.601424 )   550.35787520
 
         Spreads (Ang^2)       Omega I      =   384.878606074
        ================       Omega D      =     0.302647165
                               Omega OD     =   165.176621962
    Final Spread (Ang^2)       Omega Total  =   550.357875202
 ------------------------------------------------------------------------------
 Time for wannierise            2.285 (sec)

 Writing checkpoint file slab/GeTe.slab.chk... done

 *---------------------------------------------------------------------------*
 |                               PLOTTING                                    |
 *---------------------------------------------------------------------------*
 
 Time for plotting             36.004 (sec)
 Total Execution Time         348.742 (sec)

 *===========================================================================*
 |                             TIMING INFORMATION                            |
 *===========================================================================*
 |    Tag                                                Ncalls      Time (s)|
 |---------------------------------------------------------------------------|
 |kmesh: get                                        :         1         0.032|
 |overlap: allocate                                 :         1         0.010|
 |overlap: read                                     :         1        13.974|
 |dis: main                                         :         1       295.958|
 |wann: main                                        :         1         2.285|
 |plot: main                                        :         1        36.004|
 *---------------------------------------------------------------------------*
 
 All done: wannier90 exiting
