
     Program PWSCF v.6.4.1 starts on  7Oct2019 at 15:43:51 

     This program is part of the open-source Quantum ESPRESSO suite
     for quantum simulation of materials; please cite
         "P. Giannozzi et al., J. Phys.:Condens. Matter 21 395502 (2009);
         "P. Giannozzi et al., J. Phys.:Condens. Matter 29 465901 (2017);
          URL http://www.quantum-espresso.org", 
     in publications or presentations arising from this work. More details at
     http://www.quantum-espresso.org/quote

     Parallel version (MPI), running on    16 processors

     MPI processes distributed on     1 nodes
     K-points division:     npool     =      16
     Waiting for input...
     Reading input from standard input

     Current dimensions of program PWSCF are:
     Max number of different atomic species (ntypx) = 10
     Max number of k-points (npk) =  40000
     Max angular momentum in pseudopotentials (lmaxx) =  3

     Subspace diagonalization in iterative solution of the eigenvalue problem:
     a serial algorithm will be used

     Found symmetry operation: I + ( -0.3333  0.3333 -0.3333)
     This is a supercell, fractional translations are disabled
 
     G-vector sticks info
     --------------------
     sticks:   dense  smooth     PW     G-vecs:    dense   smooth      PW
     Sum         847     847    253                50927    50927    7871
 


     bravais-lattice index     =            4
     lattice parameter (alat)  =       7.8948  a.u.
     unit-cell volume          =    1068.8060 (a.u.)^3
     number of atoms/cell      =            6
     number of atomic types    =            2
     number of electrons       =        30.00
     number of Kohn-Sham states=           38
     kinetic-energy cutoff     =      50.0000  Ry
     charge density cutoff     =     200.0000  Ry
     convergence threshold     =      1.0E-08
     mixing beta               =       0.7000
     number of iterations used =            8  plain     mixing
     Exchange-correlation= PBESOL
                           (   1   4  10   8   0   0   0)
     Non magnetic calculation with spin-orbit


     celldm(1)=   7.894800  celldm(2)=   0.000000  celldm(3)=   2.508100
     celldm(4)=   0.000000  celldm(5)=   0.000000  celldm(6)=   0.000000

     crystal axes: (cart. coord. in units of alat)
               a(1) = (   1.000000   0.000000   0.000000 )  
               a(2) = (  -0.500000   0.866025   0.000000 )  
               a(3) = (   0.000000   0.000000   2.508100 )  

     reciprocal axes: (cart. coord. in units 2 pi/alat)
               b(1) = (  1.000000  0.577350  0.000000 )  
               b(2) = (  0.000000  1.154701  0.000000 )  
               b(3) = (  0.000000  0.000000  0.398708 )  


     PseudoPot. # 1 for Ge read from file:
     ../pseudo/Ge.rel-pbesol-n-nc.UPF
     MD5 check sum: 5d120bc42c09b8e9caae97d8f4be7bef
     Pseudo is Norm-conserving + core correction, Zval =  4.0
     Generated using "atomic" code by A. Dal Corso v.5.0.99 svn rev. 10869
     Using radial grid of 1207 points,  3 beta functions with: 
                l(1) =   0
                l(2) =   1
                l(3) =   1

     PseudoPot. # 2 for Te read from file:
     ../pseudo/Te.rel-pbesol-n-nc.UPF
     MD5 check sum: 9ea082b7414589e9c5af18756b6648f4
     Pseudo is Norm-conserving + core correction, Zval =  6.0
     Generated using "atomic" code by A. Dal Corso v.5.0.99 svn rev. 10869
     Using radial grid of 1245 points,  4 beta functions with: 
                l(1) =   1
                l(2) =   1
                l(3) =   2
                l(4) =   2

     atomic species   valence    mass     pseudopotential
        Ge             4.00    72.61000     Ge( 1.00)
        Te             6.00   127.60000     Te( 1.00)

      6 Sym. Ops. (no inversion) found



   Cartesian axes

     site n.     atom                  positions (alat units)
         1           Ge  tau(   1) = (   0.5000000  -0.2886751   1.0179129  )
         2           Te  tau(   2) = (  -0.5000000   0.2886751   0.6541539  )
         3           Ge  tau(   3) = (   0.0000000   0.0000000   0.1818794  )
         4           Te  tau(   4) = (   0.5000000  -0.2886751  -0.1818794  )
         5           Ge  tau(   5) = (  -0.5000000   0.2886751  -0.6541539  )
         6           Te  tau(   6) = (   0.0000000   0.0000000  -1.0179129  )

     number of k points=    28  Marzari-Vanderbilt smearing, width (Ry)=  0.0200
                       cart. coord. in units 2pi/alat
        k(    1) = (   0.0000000   0.0000000   0.0000000), wk =   0.0051020
        k(    2) = (   0.0000000   0.0000000   0.0996770), wk =   0.0102041
        k(    3) = (   0.0000000   0.0000000  -0.1993541), wk =   0.0051020
        k(    4) = (   0.0000000   0.1649572   0.0000000), wk =   0.0306122
        k(    5) = (   0.0000000   0.1649572   0.0996770), wk =   0.0306122
        k(    6) = (   0.0000000   0.1649572  -0.1993541), wk =   0.0306122
        k(    7) = (   0.0000000   0.3299144   0.0000000), wk =   0.0306122
        k(    8) = (   0.0000000   0.3299144   0.0996770), wk =   0.0306122
        k(    9) = (   0.0000000   0.3299144  -0.1993541), wk =   0.0306122
        k(   10) = (   0.0000000   0.4948717   0.0000000), wk =   0.0306122
        k(   11) = (   0.0000000   0.4948717   0.0996770), wk =   0.0306122
        k(   12) = (   0.0000000   0.4948717  -0.1993541), wk =   0.0306122
        k(   13) = (   0.1428571   0.2474358   0.0000000), wk =   0.0306122
        k(   14) = (   0.1428571   0.2474358   0.0996770), wk =   0.0612245
        k(   15) = (   0.1428571   0.2474358  -0.1993541), wk =   0.0306122
        k(   16) = (   0.1428571   0.4123930   0.0000000), wk =   0.0612245
        k(   17) = (   0.1428571   0.4123930   0.0996770), wk =   0.0612245
        k(   18) = (   0.1428571   0.4123930  -0.1993541), wk =   0.0612245
        k(   19) = (   0.1428571   0.5773503   0.0000000), wk =   0.0306122
        k(   20) = (   0.1428571   0.5773503   0.0996770), wk =   0.0612245
        k(   21) = (   0.1428571   0.5773503  -0.1993541), wk =   0.0306122
        k(   22) = (   0.2857143   0.4948717   0.0000000), wk =   0.0306122
        k(   23) = (   0.2857143   0.4948717   0.0996770), wk =   0.0612245
        k(   24) = (   0.2857143   0.4948717  -0.1993541), wk =   0.0306122
        k(   25) = (   0.0000000  -0.1649572   0.0996770), wk =   0.0306122
        k(   26) = (   0.0000000  -0.3299144   0.0996770), wk =   0.0306122
        k(   27) = (   0.0000000  -0.4948717   0.0996770), wk =   0.0306122
        k(   28) = (  -0.1428571  -0.4123930   0.0996770), wk =   0.0612245

     Dense  grid:    50927 G-vectors     FFT dimensions: (  36,  36,  90)

     Estimated max dynamical RAM per process >     181.32 MB

     Estimated total dynamical RAM >       2.83 GB

     Check: negative core charge=   -0.000004

     Initial potential from superposition of free atoms

     starting charge   29.99744, renormalised to   30.00000
     Starting wfcs are   48 randomized atomic wfcs

     total cpu time spent up to now is        2.3 secs

     Self-consistent Calculation

     iteration #  1     ecut=    50.00 Ry     beta= 0.70
     Davidson diagonalization with overlap
     ethr =  1.00E-02,  avg # of iterations =  3.1

     Threshold (ethr) on eigenvalues was too large:
     Diagonalizing with lowered threshold

     Davidson diagonalization with overlap
     ethr =  4.07E-05,  avg # of iterations =  5.5

     total cpu time spent up to now is       13.1 secs

     total energy              =    -110.48856670 Ry
     Harris-Foulkes estimate   =    -110.49101885 Ry
     estimated scf accuracy    <       0.01404266 Ry

     iteration #  2     ecut=    50.00 Ry     beta= 0.70
     Davidson diagonalization with overlap
     ethr =  4.68E-05,  avg # of iterations =  1.0

     total cpu time spent up to now is       16.8 secs

     total energy              =    -110.48886157 Ry
     Harris-Foulkes estimate   =    -110.48898932 Ry
     estimated scf accuracy    <       0.00105804 Ry

     iteration #  3     ecut=    50.00 Ry     beta= 0.70
     Davidson diagonalization with overlap
     ethr =  3.53E-06,  avg # of iterations =  6.8

     total cpu time spent up to now is       22.1 secs

     total energy              =    -110.48906376 Ry
     Harris-Foulkes estimate   =    -110.48907262 Ry
     estimated scf accuracy    <       0.00002293 Ry

     iteration #  4     ecut=    50.00 Ry     beta= 0.70
     Davidson diagonalization with overlap
     ethr =  7.64E-08,  avg # of iterations =  5.4

     total cpu time spent up to now is       28.4 secs

     total energy              =    -110.48909776 Ry
     Harris-Foulkes estimate   =    -110.48910710 Ry
     estimated scf accuracy    <       0.00001517 Ry

     iteration #  5     ecut=    50.00 Ry     beta= 0.70
     Davidson diagonalization with overlap
     ethr =  5.06E-08,  avg # of iterations =  4.5

     total cpu time spent up to now is       33.5 secs

     total energy              =    -110.48909431 Ry
     Harris-Foulkes estimate   =    -110.48911568 Ry
     estimated scf accuracy    <       0.00010362 Ry

     iteration #  6     ecut=    50.00 Ry     beta= 0.70
     Davidson diagonalization with overlap
     ethr =  5.06E-08,  avg # of iterations =  3.8

     total cpu time spent up to now is       38.1 secs

     total energy              =    -110.48910248 Ry
     Harris-Foulkes estimate   =    -110.48910540 Ry
     estimated scf accuracy    <       0.00000428 Ry

     iteration #  7     ecut=    50.00 Ry     beta= 0.70
     Davidson diagonalization with overlap
     ethr =  1.43E-08,  avg # of iterations =  3.5

     total cpu time spent up to now is       43.4 secs

     total energy              =    -110.48910405 Ry
     Harris-Foulkes estimate   =    -110.48910452 Ry
     estimated scf accuracy    <       0.00000108 Ry

     iteration #  8     ecut=    50.00 Ry     beta= 0.70
     Davidson diagonalization with overlap
     ethr =  3.58E-09,  avg # of iterations =  1.9

     total cpu time spent up to now is       47.5 secs

     total energy              =    -110.48910414 Ry
     Harris-Foulkes estimate   =    -110.48910417 Ry
     estimated scf accuracy    <       0.00000014 Ry

     iteration #  9     ecut=    50.00 Ry     beta= 0.70
     Davidson diagonalization with overlap
     ethr =  4.55E-10,  avg # of iterations =  3.4

     total cpu time spent up to now is       52.4 secs

     total energy              =    -110.48910417 Ry
     Harris-Foulkes estimate   =    -110.48910418 Ry
     estimated scf accuracy    <       0.00000003 Ry

     iteration # 10     ecut=    50.00 Ry     beta= 0.70
     Davidson diagonalization with overlap
     ethr =  9.06E-11,  avg # of iterations =  3.0

     total cpu time spent up to now is       56.9 secs

     End of self-consistent calculation

          k = 0.0000 0.0000 0.0000 (  6363 PWs)   bands (ev):

    -6.7578  -6.7578  -5.7471  -5.7471  -5.7471  -5.7471  -1.3640  -1.3640
    -1.3640  -1.3640   1.8169   1.8169   4.2885   4.2885   4.6492   4.6492
     4.6493   4.6493   5.0291   5.0291   5.0765   5.0765   5.2399   5.2399
     5.2408   5.2408   6.1112   6.1112   6.1112   6.1112   7.5467   7.5467
     7.5467   7.5467   7.7895   7.7895   7.7923   7.7923

          k = 0.0000 0.0000 0.0997 (  6381 PWs)   bands (ev):

    -6.6888  -6.6888  -6.1604  -6.1604  -5.3337  -5.3337  -2.1177  -2.1177
    -0.4158  -0.4158   1.4319   1.4319   4.3804   4.3804   4.5638   4.5638
     4.7336   4.7336   5.0805   5.0808   5.1505   5.1512   5.1828   5.1828
     5.3469   5.3475   5.8688   5.8688   6.2808   6.2808   7.1390   7.1390
     7.3182   7.3197   7.7103   7.7103   8.1413   8.1413

          k = 0.0000 0.0000-0.1994 (  6380 PWs)   bands (ev):

    -6.4854  -6.4854  -6.4854  -6.4854  -5.1344  -5.1344  -2.4333  -2.4333
     0.5745   0.5745   0.5745   0.5745   4.4855   4.4855   4.4855   4.4855
     4.7721   4.7721   5.1000   5.1000   5.1006   5.1006   5.4012   5.4012
     5.5368   5.5368   5.5368   5.5368   6.3501   6.3501   6.9966   6.9966
     7.1403   7.1403   7.5419   7.5419   8.8104   8.8104

          k = 0.0000 0.1650 0.0000 (  6369 PWs)   bands (ev):

    -6.5643  -6.5635  -5.5882  -5.5873  -5.5836  -5.5828  -1.3672  -1.3553
    -1.2922  -1.2806   0.9728   0.9934   3.1548   3.2445   3.6702   3.8961
     4.1715   4.2419   4.2574   4.3780   4.8959   4.9035   5.1284   5.1305
     5.1697   5.3083   5.5320   5.6112   6.3017   6.3883   7.3320   7.3421
     7.5543   7.5624   8.3597   8.4371   8.6472   8.7511

          k = 0.0000 0.1650 0.0997 (  6357 PWs)   bands (ev):

    -6.4964  -6.4956  -5.9851  -5.9842  -5.1924  -5.1917  -2.0154  -2.0053
    -0.4606  -0.4455   0.6981   0.7167   3.1485   3.2514   3.7307   3.9008
     4.2471   4.2501   4.2699   4.3843   4.8050   4.8501   4.9897   5.0359
     5.4981   5.5968   5.6389   5.6791   5.8141   5.8984   7.5035   7.5045
     7.8666   7.8737   8.0915   8.1014   8.6971   8.8006

          k = 0.0000 0.1650-0.1994 (  6366 PWs)   bands (ev):

    -6.2997  -6.2988  -6.2976  -6.2968  -5.0098  -5.0091  -2.2803  -2.2708
     0.1420   0.1589   0.3245   0.3442   3.2912   3.4256   3.7581   3.7960
     3.8562   3.9381   4.3413   4.3585   4.4690   4.5266   5.1679   5.2012
     5.4013   5.5003   6.0349   6.1786   6.1958   6.2114   7.7174   7.7434
     7.8677   7.8813   7.9947   8.0344   8.2042   8.2233

          k = 0.0000 0.3299 0.0000 (  6373 PWs)   bands (ev):

    -6.0093  -6.0079  -5.1758  -5.1745  -5.1442  -5.1436  -1.7117  -1.6939
    -1.0730  -1.0455  -0.5013  -0.4942   2.1114   2.1886   2.2674   2.2959
     3.2556   3.3549   3.7826   3.8496   4.0757   4.1346   4.5628   4.5901
     4.6472   4.6825   5.5079   5.5526   5.8098   5.9018   7.5499   7.5623
     7.8790   7.8829   8.3846   8.3887   9.0512   9.0615

          k = 0.0000 0.3299 0.0997 (  6374 PWs)   bands (ev):

    -5.9449  -5.9436  -5.5065  -5.5050  -4.8392  -4.8391  -1.9181  -1.8960
    -0.8029  -0.7958  -0.5752  -0.5493   1.7230   1.8090   2.5971   2.8946
     3.2485   3.4363   3.7633   3.8575   4.0825   4.1113   4.4398   4.5207
     4.8940   4.9388   5.0441   5.0612   5.8947   5.9500   7.7668   7.9056
     8.1645   8.2566   8.3733   8.3760   8.5419   8.5423

          k = 0.0000 0.3299-0.1994 (  6374 PWs)   bands (ev):

    -5.7783  -5.7768  -5.7635  -5.7623  -4.7193  -4.7192  -1.9080  -1.8831
    -1.1216  -1.1122  -0.2875  -0.2687   1.5866   1.6866   3.0789   3.3301
     3.5926   3.6840   3.6900   3.7196   3.9023   3.9939   4.1314   4.2776
     4.3943   4.4432   5.0825   5.1143   6.3979   6.4269   7.3272   7.3665
     7.5697   7.5720   9.2081   9.2144   9.2341   9.2409

          k = 0.0000 0.4949 0.0000 (  6382 PWs)   bands (ev):

    -5.2287  -5.2271  -4.7786  -4.7775  -4.7563  -4.7558  -2.2938  -2.2826
    -1.8133  -1.8101  -0.8637  -0.8368   1.0223   1.1010   2.6500   2.7131
     2.7702   2.8231   3.1649   3.1665   3.7642   3.7721   4.1377   4.1630
     4.1866   4.1961   4.8834   4.8874   4.9798   5.0115   8.2756   8.2821
     8.4647   8.5039   8.6569   8.6583   8.7378   8.7459

          k = 0.0000 0.4949 0.0997 (  6383 PWs)   bands (ev):

    -5.1903  -5.1890  -4.9173  -4.9160  -4.6618  -4.6601  -2.1413  -2.1405
    -1.9966  -1.9786  -0.8350  -0.8269   1.4794   1.5279   1.7722   1.8381
     2.8330   2.8739   3.2215   3.2220   3.6283   3.6532   4.3076   4.3357
     4.3814   4.3876   4.9266   4.9401   5.8251   5.8451   7.3477   7.3857
     7.6913   7.7024   7.8946   7.9223   8.8787   8.8791

          k = 0.0000 0.4949-0.1994 (  6374 PWs)   bands (ev):

    -5.0823  -5.0816  -5.0754  -5.0737  -4.6105  -4.6091  -2.3554  -2.3533
    -1.5770  -1.5501  -1.0574  -1.0549   1.1570   1.2322   2.1379   2.1547
     3.1397   3.1543   3.2209   3.2510   3.5339   3.5387   3.7548   3.7780
     4.5058   4.5608   5.0766   5.0920   6.4127   6.4490   6.9528   6.9903
     7.2580   7.2600   7.4972   7.5339   9.2952   9.2969

          k = 0.1429 0.2474 0.0000 (  6365 PWs)   bands (ev):

    -6.1889  -6.1876  -5.2890  -5.2890  -5.2879  -5.2878  -1.3548  -1.3548
    -1.3344  -1.3344  -0.0674  -0.0506   2.4777   2.4777   2.6271   2.6271
     3.4317   3.4317   3.5970   3.5970   3.6608   3.7590   5.1705   5.2495
     5.3801   5.3801   5.5132   5.5132   6.1189   6.1799   7.7459   7.9142
     7.9425   8.0797   8.0964   8.0964   8.1296   8.1296

          k = 0.1429 0.2474 0.0997 (  6354 PWs)   bands (ev):

    -6.1255  -6.1242  -5.6482  -5.6470  -4.9495  -4.9488  -1.8146  -1.7943
    -0.8526  -0.8327  -0.1640  -0.1469   2.2492   2.4376   2.9392   2.9978
     3.0732   3.1890   3.7194   3.8451   3.9273   4.1098   4.6680   4.7257
     5.0453   5.2363   5.7646   5.8842   5.9749   6.0804   7.5755   7.5864
     7.6141   7.6275   8.6119   8.7189   8.9296   8.9887

          k = 0.1429 0.2474-0.1994 (  6376 PWs)   bands (ev):

    -5.9399  -5.9398  -5.9386  -5.9386  -4.7965  -4.7961  -2.0149  -1.9947
    -0.4369  -0.4369  -0.4186  -0.4186   2.1901   2.4152   2.8099   3.0349
     3.5545   3.5545   3.7123   3.7123   4.1684   4.1685   4.2544   4.2544
     5.3067   5.3067   5.4696   5.4696   5.9536   6.0806   7.3266   7.3475
     8.2452   8.2452   8.2724   8.2724   9.4508   9.4508

          k = 0.1429 0.4124 0.0000 (  6402 PWs)   bands (ev):

    -5.5065  -5.5050  -4.8495  -4.8486  -4.8306  -4.8300  -1.9315  -1.9123
    -1.3073  -1.2928  -1.2759  -1.2446   1.5815   1.6999   2.3194   2.4300
     2.5686   2.6638   2.8774   2.9578   2.9901   3.0423   4.1641   4.2368
     4.8282   4.8957   5.7374   5.8429   5.8825   5.9704   7.3943   7.4015
     7.5259   7.5395   7.9717   7.9813   9.4835   9.5920

          k = 0.1429 0.4124 0.0997 (  6379 PWs)   bands (ev):

    -5.4528  -5.4514  -5.0966  -5.0953  -4.6271  -4.6260  -1.8750  -1.8490
    -1.5274  -1.5147  -1.1284  -1.1027   1.6519   1.7532   2.0960   2.2525
     2.4201   2.5115   3.0843   3.2982   3.3103   3.4213   3.6659   3.8087
     4.9348   5.0695   5.8853   5.9016   5.9725   5.9938   7.3126   7.3266
     7.5460   7.5590   7.6858   7.6916   9.5552   9.6604

          k = 0.1429 0.4124-0.1994 (  6404 PWs)   bands (ev):

    -5.3137  -5.3122  -5.3033  -5.3021  -4.5523  -4.5511  -1.7338  -1.7214
    -1.7120  -1.6792  -1.0754  -1.0544   1.2836   1.3889   2.1910   2.2753
     2.5988   2.8719   3.1917   3.5023   3.5675   3.8224   4.1820   4.2026
     4.2644   4.4963   5.0623   5.1896   5.4131   5.4784   8.2192   8.2220
     8.2509   8.2713   8.4236   8.5186   9.2148   9.3170

          k = 0.1429 0.5774 0.0000 (  6367 PWs)   bands (ev):

    -4.8143  -4.8143  -4.8127  -4.8127  -4.6130  -4.6120  -2.1587  -2.1587
    -2.1432  -2.1432  -1.2163  -1.1765   0.9063   0.9934   2.6271   2.6271
     2.7018   2.7018   2.8592   3.0466   3.2987   3.4449   3.4449   3.4457
     3.5129   3.5130   5.7585   5.7585   5.8557   5.8558   7.2863   7.2863
     7.2931   7.2931   9.5015   9.5015   9.5241   9.5241

          k = 0.1429 0.5774 0.0997 (  6400 PWs)   bands (ev):

    -4.8411  -4.8399  -4.7638  -4.7620  -4.6374  -4.6361  -2.3831  -2.3704
    -1.8479  -1.8276  -1.3014  -1.2660   1.0893   1.1765   2.1930   2.3351
     2.5122   2.5454   2.6356   2.6494   3.1231   3.2383   3.8983   3.9504
     4.3492   4.5034   5.3202   5.4310   5.4415   5.4920   7.6505   7.6967
     7.8863   7.9130   8.1394   8.1548   9.4745   9.5650

          k = 0.1429 0.5774-0.1994 (  6392 PWs)   bands (ev):

    -4.8487  -4.8478  -4.6972  -4.6972  -4.6955  -4.6955  -2.4647  -2.4529
    -1.5331  -1.5331  -1.5058  -1.5058   1.5866   1.5866   1.6884   1.6884
     2.3174   2.3174   2.4140   2.4140   3.4612   3.6921   4.2989   4.6141
     4.6849   4.6849   4.7316   4.7316   5.5439   5.6713   7.1458   7.1522
     8.3391   8.4449   8.9420   8.9421   8.9996   9.0156

          k = 0.2857 0.4949 0.0000 (  6385 PWs)   bands (ev):

    -4.8563  -4.8546  -4.5719  -4.5719  -4.5700  -4.5699  -1.9449  -1.9203
    -1.9108  -1.9108  -1.8796  -1.8796   1.4493   1.4493   1.5370   1.5370
     1.9079   1.9943   3.1128   3.1128   3.2077   3.2077   4.2014   4.3422
     4.4565   4.4565   4.5283   4.5283   4.9461   5.0626   8.1432   8.2161
     8.7619   8.8036   9.0320   9.0320   9.1058   9.1058

          k = 0.2857 0.4949 0.0997 (  6409 PWs)   bands (ev):

    -4.8300  -4.8283  -4.6635  -4.6618  -4.5076  -4.5053  -1.9732  -1.9611
    -1.9457  -1.9365  -1.8326  -1.7976   1.3497   1.4516   1.8083   1.9265
     2.0336   2.1488   2.3097   2.3957   3.3592   3.5234   3.5335   3.6564
     4.3382   4.4275   5.3571   5.4144   5.5817   5.6536   7.4644   7.4800
     8.1371   8.1694   8.9487   9.0216   9.6605   9.6785

          k = 0.2857 0.4949-0.1994 (  6404 PWs)   bands (ev):

    -4.7587  -4.7587  -4.7571  -4.7570  -4.4847  -4.4823  -1.9851  -1.9851
    -1.9598  -1.9598  -1.7972  -1.7605   1.4362   1.6761   1.7622   1.9828
     2.1728   2.1728   2.4001   2.4001   2.9101   2.9101   3.1459   3.1459
     5.3243   5.3243   5.3808   5.3808   5.9161   5.9790   7.5877   7.5933
     7.7826   7.7826   7.8086   7.8086  10.5667  10.5669

          k = 0.0000-0.1650 0.0997 (  6357 PWs)   bands (ev):

    -6.4974  -6.4966  -5.9817  -5.9809  -5.1969  -5.1960  -1.9806  -1.9708
    -0.5900  -0.5756   0.8563   0.8786   3.3525   3.4404   3.5089   3.7050
     3.9707   4.0951   4.2243   4.3079   4.5482   4.5613   5.1378   5.2723
     5.2736   5.3074   6.0876   6.1828   6.5512   6.6220   7.4733   7.4819
     7.5871   7.5888   7.8870   7.9075   8.2783   8.3604

          k = 0.0000-0.3299 0.0997 (  6374 PWs)   bands (ev):

    -5.9519  -5.9504  -5.4826  -5.4816  -4.8670  -4.8663  -1.5871  -1.5607
    -1.4288  -1.4156  -0.2899  -0.2790   1.7397   1.8670   2.9578   3.0359
     3.4062   3.4599   3.5749   3.6899   4.0164   4.0727   4.0880   4.0902
     4.9652   4.9919   5.0203   5.0832   6.1940   6.2446   7.4060   7.4171
     7.6086   7.6089   8.5013   8.5254   9.6227   9.6335

          k = 0.0000-0.4949 0.0997 (  6383 PWs)   bands (ev):

    -5.1878  -5.1860  -4.9317  -4.9315  -4.6428  -4.6423  -2.4149  -2.4090
    -1.4244  -1.4199  -1.1472  -1.1130   0.8894   0.9750   2.9300   2.9417
     2.9443   2.9725   3.3527   3.3656   3.5842   3.5867   3.6795   3.7473
     4.1068   4.1106   4.6725   4.7033   5.7549   5.7916   7.4572   7.4659
     7.6611   7.6724   8.8539   8.8582   9.2173   9.2178

          k =-0.1429-0.4124 0.0997 (  6379 PWs)   bands (ev):

    -5.4578  -5.4562  -5.0806  -5.0798  -4.6411  -4.6404  -1.8785  -1.8641
    -1.4879  -1.4529  -1.1384  -1.1211   1.2733   1.3843   2.2311   2.3148
     2.7667   2.8895   3.1103   3.2848   3.5240   3.7023   3.9544   4.0820
     4.7897   4.8515   5.1024   5.1295   5.1585   5.2584   8.0995   8.1519
     8.2928   8.3304   8.9886   9.0437   9.1909   9.2020

     the Fermi energy is     6.6364 ev

!    total energy              =    -110.48910418 Ry
     Harris-Foulkes estimate   =    -110.48910418 Ry
     estimated scf accuracy    <          1.2E-09 Ry

     The total energy is the sum of the following terms:

     one-electron contribution =      21.97079513 Ry
     hartree contribution      =       3.34477343 Ry
     xc contribution           =     -58.46374822 Ry
     ewald contribution        =     -77.34245655 Ry
     smearing contrib. (-TS)   =       0.00153203 Ry

     convergence has been achieved in  10 iterations

     Writing output data file GeTe.bulk.save/
 
     init_run     :      2.00s CPU      2.03s WALL (       1 calls)
     electrons    :     51.04s CPU     54.61s WALL (       1 calls)

     Called by init_run:
     wfcinit      :      1.37s CPU      1.39s WALL (       1 calls)
     potinit      :      0.20s CPU      0.20s WALL (       1 calls)
     hinit0       :      0.41s CPU      0.41s WALL (       1 calls)

     Called by electrons:
     c_bands      :     37.57s CPU     40.31s WALL (      11 calls)
     sum_band     :     10.50s CPU     10.59s WALL (      11 calls)
     v_of_rho     :      1.01s CPU      1.19s WALL (      11 calls)
     mix_rho      :      1.72s CPU      2.09s WALL (      11 calls)

     Called by c_bands:
     init_us_2    :      0.26s CPU      0.27s WALL (      46 calls)
     cegterg      :     35.07s CPU     35.62s WALL (      22 calls)

     Called by sum_band:

     Called by *egterg:
     h_psi        :     30.04s CPU     30.37s WALL (     110 calls)
     g_psi        :      0.25s CPU      0.27s WALL (      86 calls)
     cdiaghg      :      0.34s CPU      0.40s WALL (     106 calls)

     Called by h_psi:
     h_psi:pot    :     29.74s CPU     29.83s WALL (     110 calls)
     h_psi:calbec :      1.04s CPU      1.05s WALL (     110 calls)
     vloc_psi     :     27.63s CPU     27.72s WALL (     110 calls)
     add_vuspsi   :      1.06s CPU      1.07s WALL (     110 calls)

     General routines
     calbec       :      1.04s CPU      1.05s WALL (     110 calls)
     fft          :      0.31s CPU      0.31s WALL (     141 calls)
     ffts         :      0.08s CPU      0.07s WALL (      44 calls)
     fftw         :     25.76s CPU     25.89s WALL (   11748 calls)
 
     Parallel routines
 
     PWSCF        :     53.32s CPU     59.20s WALL

 
   This run was terminated on:  15:44:51   7Oct2019            

=------------------------------------------------------------------------------=
   JOB DONE.
=------------------------------------------------------------------------------=
