
     Program PWSCF v.6.4.1 starts on  7Oct2019 at 15:45:53 

     This program is part of the open-source Quantum ESPRESSO suite
     for quantum simulation of materials; please cite
         "P. Giannozzi et al., J. Phys.:Condens. Matter 21 395502 (2009);
         "P. Giannozzi et al., J. Phys.:Condens. Matter 29 465901 (2017);
          URL http://www.quantum-espresso.org", 
     in publications or presentations arising from this work. More details at
     http://www.quantum-espresso.org/quote

     Parallel version (MPI), running on    16 processors

     MPI processes distributed on     1 nodes
     K-points division:     npool     =      16
     Waiting for input...
     Reading input from standard input

     Current dimensions of program PWSCF are:
     Max number of different atomic species (ntypx) = 10
     Max number of k-points (npk) =  40000
     Max angular momentum in pseudopotentials (lmaxx) =  3

     Atomic positions and unit cell read from directory:
     temp/GeTe.bulk.save/                                                                                                                                                                                                                                            
 

     Subspace diagonalization in iterative solution of the eigenvalue problem:
     a serial algorithm will be used

     Found symmetry operation: I + ( -0.3333  0.3333 -0.3333)
     This is a supercell, fractional translations are disabled
 
     G-vector sticks info
     --------------------
     sticks:   dense  smooth     PW     G-vecs:    dense   smooth      PW
     Sum         847     847    301                50927    50927   10589
 


     bravais-lattice index     =            4
     lattice parameter (alat)  =       7.8948  a.u.
     unit-cell volume          =    1068.8060 (a.u.)^3
     number of atoms/cell      =            6
     number of atomic types    =            2
     number of electrons       =        30.00
     number of Kohn-Sham states=           60
     kinetic-energy cutoff     =      50.0000  Ry
     charge density cutoff     =     200.0000  Ry
     Exchange-correlation= PBESOL
                           (   1   4  10   8   0   0   0)
     Non magnetic calculation with spin-orbit


     celldm(1)=   7.894800  celldm(2)=   0.000000  celldm(3)=   2.508100
     celldm(4)=   0.000000  celldm(5)=   0.000000  celldm(6)=   0.000000

     crystal axes: (cart. coord. in units of alat)
               a(1) = (   1.000000   0.000000   0.000000 )  
               a(2) = (  -0.500000   0.866025   0.000000 )  
               a(3) = (   0.000000   0.000000   2.508100 )  

     reciprocal axes: (cart. coord. in units 2 pi/alat)
               b(1) = (  1.000000  0.577350  0.000000 )  
               b(2) = (  0.000000  1.154701  0.000000 )  
               b(3) = (  0.000000  0.000000  0.398708 )  


     PseudoPot. # 1 for Ge read from file:
     ../pseudo/Ge.rel-pbesol-n-nc.UPF
     MD5 check sum: 5d120bc42c09b8e9caae97d8f4be7bef
     Pseudo is Norm-conserving + core correction, Zval =  4.0
     Generated using "atomic" code by A. Dal Corso v.5.0.99 svn rev. 10869
     Using radial grid of 1207 points,  3 beta functions with: 
                l(1) =   0
                l(2) =   1
                l(3) =   1

     PseudoPot. # 2 for Te read from file:
     ../pseudo/Te.rel-pbesol-n-nc.UPF
     MD5 check sum: 9ea082b7414589e9c5af18756b6648f4
     Pseudo is Norm-conserving + core correction, Zval =  6.0
     Generated using "atomic" code by A. Dal Corso v.5.0.99 svn rev. 10869
     Using radial grid of 1245 points,  4 beta functions with: 
                l(1) =   1
                l(2) =   1
                l(3) =   2
                l(4) =   2

     atomic species   valence    mass     pseudopotential
        Ge             4.00    72.61000     Ge( 1.00)
        Te             6.00   127.60000     Te( 1.00)

      6 Sym. Ops. (no inversion) found


                                    s                        frac. trans.

      isym =  1     identity                                     

 cryst.   s( 1) = (     1          0          0      )
                  (     0          1          0      )
                  (     0          0          1      )

 cart.    s( 1) = (  1.0000000  0.0000000  0.0000000 )
                  (  0.0000000  1.0000000  0.0000000 )
                  (  0.0000000  0.0000000  1.0000000 )


      isym =  2     120 deg rotation - cryst. axis [0,0,1]       

 cryst.   s( 2) = (     0          1          0      )
                  (    -1         -1          0      )
                  (     0          0          1      )

 cart.    s( 2) = ( -0.5000000 -0.8660254  0.0000000 )
                  (  0.8660254 -0.5000000  0.0000000 )
                  (  0.0000000  0.0000000  1.0000000 )


      isym =  3     120 deg rotation - cryst. axis [0,0,-1]      

 cryst.   s( 3) = (    -1         -1          0      )
                  (     1          0          0      )
                  (     0          0          1      )

 cart.    s( 3) = ( -0.5000000  0.8660254  0.0000000 )
                  ( -0.8660254 -0.5000000  0.0000000 )
                  (  0.0000000  0.0000000  1.0000000 )


      isym =  4     inv. 180 deg rotation - cart. axis [1,0,0]   

 cryst.   s( 4) = (    -1          0          0      )
                  (     1          1          0      )
                  (     0          0          1      )

 cart.    s( 4) = ( -1.0000000  0.0000000  0.0000000 )
                  (  0.0000000  1.0000000  0.0000000 )
                  (  0.0000000  0.0000000  1.0000000 )


      isym =  5     inv. 180 deg rotation - cryst. axis [0,1,0]  

 cryst.   s( 5) = (     1          1          0      )
                  (     0         -1          0      )
                  (     0          0          1      )

 cart.    s( 5) = (  0.5000000  0.8660254  0.0000000 )
                  (  0.8660254 -0.5000000  0.0000000 )
                  (  0.0000000  0.0000000  1.0000000 )


      isym =  6     inv. 180 deg rotation - cryst. axis [1,1,0]  

 cryst.   s( 6) = (     0         -1          0      )
                  (    -1          0          0      )
                  (     0          0          1      )

 cart.    s( 6) = (  0.5000000 -0.8660254  0.0000000 )
                  ( -0.8660254 -0.5000000  0.0000000 )
                  (  0.0000000  0.0000000  1.0000000 )


     double point group C_3v (3m)  
     there are  6 classes and  3 irreducible representations
     the character table:

       E     -E    2C3   -2C3  3s_v  -3s_v
                                          
G_4    2.00 -2.00  1.00 -1.00  0.00  0.00
G_5    1.00 -1.00 -1.00  1.00  0.00  0.00
G_6    1.00 -1.00 -1.00  1.00  0.00  0.00

     imaginary part

       E     -E    2C3   -2C3  3s_v  -3s_v
                                          
G_4    0.00  0.00  0.00  0.00  0.00  0.00
G_5    0.00  0.00  0.00  0.00  1.00 -1.00
G_6    0.00  0.00  0.00  0.00 -1.00  1.00

     the symmetry operations in each class and the name of the first element:

     E             1
          identity                                               
     -E           -1
          identity E                                             
     2C3           2    3
          120 deg rotation - cryst. axis [0,0,1]                 
     -2C3         -2   -3
          120 deg rotation - cryst. axis [0,0,1] E               
     3s_v          4   -5   -6
          inv. 180 deg rotation - cart. axis [1,0,0]             
     3s_v          5    6   -4
          inv. 180 deg rotation - cryst. axis [0,1,0]            

   Cartesian axes

     site n.     atom                  positions (alat units)
         1           Ge  tau(   1) = (   0.5000000  -0.2886751   1.0179129  )
         2           Te  tau(   2) = (  -0.5000000   0.2886751   0.6541539  )
         3           Ge  tau(   3) = (   0.0000000   0.0000000   0.1818794  )
         4           Te  tau(   4) = (   0.5000000  -0.2886751  -0.1818794  )
         5           Ge  tau(   5) = (  -0.5000000   0.2886751  -0.6541539  )
         6           Te  tau(   6) = (   0.0000000   0.0000000  -1.0179129  )

   Crystallographic axes

     site n.     atom                  positions (cryst. coord.)
         1           Ge  tau(   1) = (  0.3333333 -0.3333333  0.4058502  )
         2           Te  tau(   2) = ( -0.3333333  0.3333333  0.2608165  )
         3           Ge  tau(   3) = (  0.0000000  0.0000000  0.0725168  )
         4           Te  tau(   4) = (  0.3333333 -0.3333333 -0.0725168  )
         5           Ge  tau(   5) = ( -0.3333333  0.3333333 -0.2608165  )
         6           Te  tau(   6) = (  0.0000000  0.0000000 -0.4058502  )

     number of k points=    75  Marzari-Vanderbilt smearing, width (Ry)=  0.0200
                       cart. coord. in units 2pi/alat
        k(    1) = (   0.0000000   0.0000000   0.0000000), wk =   0.0133333
        k(    2) = (   0.0000000   0.0000000   0.1329027), wk =   0.0133333
        k(    3) = (   0.0000000   0.0000000   0.2658055), wk =   0.0133333
        k(    4) = (   0.0000000   0.2309401   0.0000000), wk =   0.0133333
        k(    5) = (   0.0000000   0.2309401   0.1329027), wk =   0.0133333
        k(    6) = (   0.0000000   0.2309401   0.2658055), wk =   0.0133333
        k(    7) = (   0.0000000   0.4618802   0.0000000), wk =   0.0133333
        k(    8) = (   0.0000000   0.4618802   0.1329027), wk =   0.0133333
        k(    9) = (   0.0000000   0.4618802   0.2658055), wk =   0.0133333
        k(   10) = (   0.0000000   0.6928203   0.0000000), wk =   0.0133333
        k(   11) = (   0.0000000   0.6928203   0.1329027), wk =   0.0133333
        k(   12) = (   0.0000000   0.6928203   0.2658055), wk =   0.0133333
        k(   13) = (   0.0000000   0.9237604   0.0000000), wk =   0.0133333
        k(   14) = (   0.0000000   0.9237604   0.1329027), wk =   0.0133333
        k(   15) = (   0.0000000   0.9237604   0.2658055), wk =   0.0133333
        k(   16) = (   0.2000000   0.1154701   0.0000000), wk =   0.0133333
        k(   17) = (   0.2000000   0.1154701   0.1329027), wk =   0.0133333
        k(   18) = (   0.2000000   0.1154701   0.2658055), wk =   0.0133333
        k(   19) = (   0.2000000   0.3464102   0.0000000), wk =   0.0133333
        k(   20) = (   0.2000000   0.3464102   0.1329027), wk =   0.0133333
        k(   21) = (   0.2000000   0.3464102   0.2658055), wk =   0.0133333
        k(   22) = (   0.2000000   0.5773503   0.0000000), wk =   0.0133333
        k(   23) = (   0.2000000   0.5773503   0.1329027), wk =   0.0133333
        k(   24) = (   0.2000000   0.5773503   0.2658055), wk =   0.0133333
        k(   25) = (   0.2000000   0.8082904   0.0000000), wk =   0.0133333
        k(   26) = (   0.2000000   0.8082904   0.1329027), wk =   0.0133333
        k(   27) = (   0.2000000   0.8082904   0.2658055), wk =   0.0133333
        k(   28) = (   0.2000000   1.0392305   0.0000000), wk =   0.0133333
        k(   29) = (   0.2000000   1.0392305   0.1329027), wk =   0.0133333
        k(   30) = (   0.2000000   1.0392305   0.2658055), wk =   0.0133333
        k(   31) = (   0.4000000   0.2309401   0.0000000), wk =   0.0133333
        k(   32) = (   0.4000000   0.2309401   0.1329027), wk =   0.0133333
        k(   33) = (   0.4000000   0.2309401   0.2658055), wk =   0.0133333
        k(   34) = (   0.4000000   0.4618802   0.0000000), wk =   0.0133333
        k(   35) = (   0.4000000   0.4618802   0.1329027), wk =   0.0133333
        k(   36) = (   0.4000000   0.4618802   0.2658055), wk =   0.0133333
        k(   37) = (   0.4000000   0.6928203   0.0000000), wk =   0.0133333
        k(   38) = (   0.4000000   0.6928203   0.1329027), wk =   0.0133333
        k(   39) = (   0.4000000   0.6928203   0.2658055), wk =   0.0133333
        k(   40) = (   0.4000000   0.9237604   0.0000000), wk =   0.0133333
        k(   41) = (   0.4000000   0.9237604   0.1329027), wk =   0.0133333
        k(   42) = (   0.4000000   0.9237604   0.2658055), wk =   0.0133333
        k(   43) = (   0.4000000   1.1547005   0.0000000), wk =   0.0133333
        k(   44) = (   0.4000000   1.1547005   0.1329027), wk =   0.0133333
        k(   45) = (   0.4000000   1.1547005   0.2658055), wk =   0.0133333
        k(   46) = (   0.6000000   0.3464102   0.0000000), wk =   0.0133333
        k(   47) = (   0.6000000   0.3464102   0.1329027), wk =   0.0133333
        k(   48) = (   0.6000000   0.3464102   0.2658055), wk =   0.0133333
        k(   49) = (   0.6000000   0.5773503   0.0000000), wk =   0.0133333
        k(   50) = (   0.6000000   0.5773503   0.1329027), wk =   0.0133333
        k(   51) = (   0.6000000   0.5773503   0.2658055), wk =   0.0133333
        k(   52) = (   0.6000000   0.8082904   0.0000000), wk =   0.0133333
        k(   53) = (   0.6000000   0.8082904   0.1329027), wk =   0.0133333
        k(   54) = (   0.6000000   0.8082904   0.2658055), wk =   0.0133333
        k(   55) = (   0.6000000   1.0392305   0.0000000), wk =   0.0133333
        k(   56) = (   0.6000000   1.0392305   0.1329027), wk =   0.0133333
        k(   57) = (   0.6000000   1.0392305   0.2658055), wk =   0.0133333
        k(   58) = (   0.6000000   1.2701706   0.0000000), wk =   0.0133333
        k(   59) = (   0.6000000   1.2701706   0.1329027), wk =   0.0133333
        k(   60) = (   0.6000000   1.2701706   0.2658055), wk =   0.0133333
        k(   61) = (   0.8000000   0.4618802   0.0000000), wk =   0.0133333
        k(   62) = (   0.8000000   0.4618802   0.1329027), wk =   0.0133333
        k(   63) = (   0.8000000   0.4618802   0.2658055), wk =   0.0133333
        k(   64) = (   0.8000000   0.6928203   0.0000000), wk =   0.0133333
        k(   65) = (   0.8000000   0.6928203   0.1329027), wk =   0.0133333
        k(   66) = (   0.8000000   0.6928203   0.2658055), wk =   0.0133333
        k(   67) = (   0.8000000   0.9237604   0.0000000), wk =   0.0133333
        k(   68) = (   0.8000000   0.9237604   0.1329027), wk =   0.0133333
        k(   69) = (   0.8000000   0.9237604   0.2658055), wk =   0.0133333
        k(   70) = (   0.8000000   1.1547005   0.0000000), wk =   0.0133333
        k(   71) = (   0.8000000   1.1547005   0.1329027), wk =   0.0133333
        k(   72) = (   0.8000000   1.1547005   0.2658055), wk =   0.0133333
        k(   73) = (   0.8000000   1.3856406   0.0000000), wk =   0.0133333
        k(   74) = (   0.8000000   1.3856406   0.1329027), wk =   0.0133333
        k(   75) = (   0.8000000   1.3856406   0.2658055), wk =   0.0133333

                       cryst. coord.
        k(    1) = (   0.0000000   0.0000000   0.0000000), wk =   0.0133333
        k(    2) = (   0.0000000   0.0000000   0.3333333), wk =   0.0133333
        k(    3) = (   0.0000000   0.0000000   0.6666667), wk =   0.0133333
        k(    4) = (   0.0000000   0.2000000   0.0000000), wk =   0.0133333
        k(    5) = (   0.0000000   0.2000000   0.3333333), wk =   0.0133333
        k(    6) = (   0.0000000   0.2000000   0.6666667), wk =   0.0133333
        k(    7) = (   0.0000000   0.4000000   0.0000000), wk =   0.0133333
        k(    8) = (   0.0000000   0.4000000   0.3333333), wk =   0.0133333
        k(    9) = (   0.0000000   0.4000000   0.6666667), wk =   0.0133333
        k(   10) = (   0.0000000   0.6000000   0.0000000), wk =   0.0133333
        k(   11) = (   0.0000000   0.6000000   0.3333333), wk =   0.0133333
        k(   12) = (   0.0000000   0.6000000   0.6666667), wk =   0.0133333
        k(   13) = (   0.0000000   0.8000000   0.0000000), wk =   0.0133333
        k(   14) = (   0.0000000   0.8000000   0.3333333), wk =   0.0133333
        k(   15) = (   0.0000000   0.8000000   0.6666667), wk =   0.0133333
        k(   16) = (   0.2000000   0.0000000   0.0000000), wk =   0.0133333
        k(   17) = (   0.2000000   0.0000000   0.3333333), wk =   0.0133333
        k(   18) = (   0.2000000   0.0000000   0.6666667), wk =   0.0133333
        k(   19) = (   0.2000000   0.2000000   0.0000000), wk =   0.0133333
        k(   20) = (   0.2000000   0.2000000   0.3333333), wk =   0.0133333
        k(   21) = (   0.2000000   0.2000000   0.6666667), wk =   0.0133333
        k(   22) = (   0.2000000   0.4000000   0.0000000), wk =   0.0133333
        k(   23) = (   0.2000000   0.4000000   0.3333333), wk =   0.0133333
        k(   24) = (   0.2000000   0.4000000   0.6666667), wk =   0.0133333
        k(   25) = (   0.2000000   0.6000000   0.0000000), wk =   0.0133333
        k(   26) = (   0.2000000   0.6000000   0.3333333), wk =   0.0133333
        k(   27) = (   0.2000000   0.6000000   0.6666667), wk =   0.0133333
        k(   28) = (   0.2000000   0.8000000   0.0000000), wk =   0.0133333
        k(   29) = (   0.2000000   0.8000000   0.3333333), wk =   0.0133333
        k(   30) = (   0.2000000   0.8000000   0.6666667), wk =   0.0133333
        k(   31) = (   0.4000000   0.0000000   0.0000000), wk =   0.0133333
        k(   32) = (   0.4000000   0.0000000   0.3333333), wk =   0.0133333
        k(   33) = (   0.4000000   0.0000000   0.6666667), wk =   0.0133333
        k(   34) = (   0.4000000   0.2000000   0.0000000), wk =   0.0133333
        k(   35) = (   0.4000000   0.2000000   0.3333333), wk =   0.0133333
        k(   36) = (   0.4000000   0.2000000   0.6666667), wk =   0.0133333
        k(   37) = (   0.4000000   0.4000000   0.0000000), wk =   0.0133333
        k(   38) = (   0.4000000   0.4000000   0.3333333), wk =   0.0133333
        k(   39) = (   0.4000000   0.4000000   0.6666667), wk =   0.0133333
        k(   40) = (   0.4000000   0.6000000   0.0000000), wk =   0.0133333
        k(   41) = (   0.4000000   0.6000000   0.3333333), wk =   0.0133333
        k(   42) = (   0.4000000   0.6000000   0.6666667), wk =   0.0133333
        k(   43) = (   0.4000000   0.8000000   0.0000000), wk =   0.0133333
        k(   44) = (   0.4000000   0.8000000   0.3333333), wk =   0.0133333
        k(   45) = (   0.4000000   0.8000000   0.6666667), wk =   0.0133333
        k(   46) = (   0.6000000   0.0000000   0.0000000), wk =   0.0133333
        k(   47) = (   0.6000000   0.0000000   0.3333333), wk =   0.0133333
        k(   48) = (   0.6000000   0.0000000   0.6666667), wk =   0.0133333
        k(   49) = (   0.6000000   0.2000000   0.0000000), wk =   0.0133333
        k(   50) = (   0.6000000   0.2000000   0.3333333), wk =   0.0133333
        k(   51) = (   0.6000000   0.2000000   0.6666667), wk =   0.0133333
        k(   52) = (   0.6000000   0.4000000   0.0000000), wk =   0.0133333
        k(   53) = (   0.6000000   0.4000000   0.3333333), wk =   0.0133333
        k(   54) = (   0.6000000   0.4000000   0.6666667), wk =   0.0133333
        k(   55) = (   0.6000000   0.6000000   0.0000000), wk =   0.0133333
        k(   56) = (   0.6000000   0.6000000   0.3333333), wk =   0.0133333
        k(   57) = (   0.6000000   0.6000000   0.6666667), wk =   0.0133333
        k(   58) = (   0.6000000   0.8000000   0.0000000), wk =   0.0133333
        k(   59) = (   0.6000000   0.8000000   0.3333333), wk =   0.0133333
        k(   60) = (   0.6000000   0.8000000   0.6666667), wk =   0.0133333
        k(   61) = (   0.8000000   0.0000000   0.0000000), wk =   0.0133333
        k(   62) = (   0.8000000   0.0000000   0.3333333), wk =   0.0133333
        k(   63) = (   0.8000000   0.0000000   0.6666667), wk =   0.0133333
        k(   64) = (   0.8000000   0.2000000   0.0000000), wk =   0.0133333
        k(   65) = (   0.8000000   0.2000000   0.3333333), wk =   0.0133333
        k(   66) = (   0.8000000   0.2000000   0.6666667), wk =   0.0133333
        k(   67) = (   0.8000000   0.4000000   0.0000000), wk =   0.0133333
        k(   68) = (   0.8000000   0.4000000   0.3333333), wk =   0.0133333
        k(   69) = (   0.8000000   0.4000000   0.6666667), wk =   0.0133333
        k(   70) = (   0.8000000   0.6000000   0.0000000), wk =   0.0133333
        k(   71) = (   0.8000000   0.6000000   0.3333333), wk =   0.0133333
        k(   72) = (   0.8000000   0.6000000   0.6666667), wk =   0.0133333
        k(   73) = (   0.8000000   0.8000000   0.0000000), wk =   0.0133333
        k(   74) = (   0.8000000   0.8000000   0.3333333), wk =   0.0133333
        k(   75) = (   0.8000000   0.8000000   0.6666667), wk =   0.0133333

     Dense  grid:    50927 G-vectors     FFT dimensions: (  36,  36,  90)

     Dynamical RAM for                 wfc:      11.68 MB

     Dynamical RAM for     wfc (w. buffer):      11.68 MB

     Dynamical RAM for           str. fact:       1.55 MB

     Dynamical RAM for           local pot:       0.00 MB

     Dynamical RAM for          nlocal pot:       6.72 MB

     Dynamical RAM for                qrad:       1.36 MB

     Dynamical RAM for          rho,v,vnew:      20.00 MB

     Dynamical RAM for           G-vectors:       3.30 MB

     Dynamical RAM for          h,s,v(r/c):       2.64 MB

     Dynamical RAM for          <psi|beta>:       0.13 MB

     Dynamical RAM for                 psi:      46.74 MB

     Dynamical RAM for                hpsi:      46.74 MB

     Dynamical RAM for      wfcinit/wfcrot:      17.61 MB

     Estimated static dynamical RAM per process >      54.07 MB

     Estimated max dynamical RAM per process >     150.31 MB

     Estimated total dynamical RAM >       2.35 GB

     Check: negative core charge=   -0.000004

     The potential is recalculated from file :
     temp/GeTe.bulk.save/charge-density

     Starting wfcs are   48 randomized atomic wfcs +   12 random wfcs

     Band Structure Calculation
     Davidson diagonalization with overlap

     Computing kpt #:     1  of     5 on this pool
     total cpu time spent up to now is       27.3 secs

     Computing kpt #:     2  of     5 on this pool
     total cpu time spent up to now is       53.3 secs

     Computing kpt #:     3  of     5 on this pool
     total cpu time spent up to now is       80.6 secs

     Computing kpt #:     4  of     5 on this pool
     total cpu time spent up to now is      106.2 secs

     Computing kpt #:     5  of     5 on this pool
     total cpu time spent up to now is      124.6 secs

     ethr =  3.33E-11,  avg # of iterations = 57.4

     total cpu time spent up to now is      131.4 secs

     End of band structure calculation

          k = 0.0000 0.0000 0.0000 (  6363 PWs)   bands (ev):

    -6.7578  -6.7578  -5.7472  -5.7472  -5.7470  -5.7470  -1.3641  -1.3641
    -1.3639  -1.3639   1.8169   1.8169   4.2885   4.2885   4.6492   4.6492
     4.6494   4.6494   5.0291   5.0291   5.0765   5.0765   5.2399   5.2399
     5.2408   5.2408   6.1111   6.1111   6.1113   6.1113   7.5466   7.5466
     7.5469   7.5469   7.7895   7.7895   7.7923   7.7923   8.1279   8.1279
     8.1281   8.1281   9.5738   9.5738  10.0838  10.0838  10.2751  10.2751
    12.1011  12.1011  12.1157  12.1157  12.2723  12.2723  13.2148  13.2148
    13.2148  13.2148  14.2631  14.2633

          k = 0.0000 0.0000 0.1329 (  6374 PWs)   bands (ev):

    -6.6355  -6.6355  -6.2808  -6.2808  -5.2289  -5.2289  -2.2869  -2.2869
    -0.0835  -0.0835   1.1770   1.1770   4.4211   4.4211   4.5378   4.5378
     4.7542   4.7542   5.0845   5.0850   5.1293   5.1301   5.2908   5.2908
     5.3753   5.3758   5.7682   5.7682   6.3182   6.3182   7.0598   7.0598
     7.2210   7.2220   7.6196   7.6196   8.3632   8.3632   8.7036   8.7082
     8.8809   8.8809   9.2074   9.2074   9.6602   9.6602   9.7232   9.7293
    12.0347  12.0347  12.2318  12.2318  12.3351  12.3469  12.3503  12.3503
    13.1169  13.1212  13.1212  13.1270

          k = 0.0000 0.0000 0.2658 (  6374 PWs)   bands (ev):

    -6.6355  -6.6355  -6.2808  -6.2808  -5.2289  -5.2289  -2.2869  -2.2869
    -0.0835  -0.0835   1.1770   1.1770   4.4211   4.4211   4.5378   4.5378
     4.7542   4.7542   5.0845   5.0850   5.1293   5.1301   5.2908   5.2908
     5.3753   5.3758   5.7682   5.7682   6.3182   6.3182   7.0598   7.0598
     7.2210   7.2220   7.6196   7.6196   8.3632   8.3632   8.7036   8.7082
     8.8809   8.8809   9.2074   9.2074   9.6602   9.6602   9.7232   9.7293
    12.0347  12.0347  12.2318  12.2318  12.3351  12.3469  12.3503  12.3503
    13.1169  13.1212  13.1212  13.1270

          k = 0.0000 0.2309 0.0000 (  6361 PWs)   bands (ev):

    -6.3820  -6.3809  -5.4452  -5.4440  -5.4328  -5.4319  -1.4339  -1.4177
    -1.2172  -1.1998   0.3981   0.4136   2.5942   2.6799   3.0619   3.3087
     3.7245   3.8340   4.2043   4.2985   4.4879   4.6271   4.7946   4.8157
     4.9223   4.9551   5.8596   5.9344   5.9792   6.0402   7.5352   7.5392
     7.9463   7.9487   7.9713   8.0265   9.2266   9.3635   9.3645   9.3848
     9.6770   9.6946   9.7018   9.7775  10.1057  10.1637  11.1686  11.1853
    11.2114  11.2282  11.5671  11.5691  12.7525  12.7729  12.8678  12.8800
    13.1164  13.1298  13.7180  13.7229

          k = 0.0000 0.2309 0.1329 (  6369 PWs)   bands (ev):

    -6.2641  -6.2630  -5.9355  -5.9343  -4.9771  -4.9765  -2.0653  -2.0502
    -0.2661  -0.2443  -0.0017   0.0128   2.4457   2.5444   3.3428   3.5699
     3.8797   3.9407   4.1733   4.2942   4.3672   4.4052   4.8584   5.0212
     5.0278   5.0602   5.2488   5.3128   5.9151   5.9471   8.0804   8.0841
     8.1538   8.2347   8.4590   8.4610   8.5823   8.5957   8.8394   8.8667
     9.4726   9.5052   9.6943   9.7337  10.4984  10.5002  10.9823  11.0318
    11.2253  11.2512  11.9776  11.9887  12.8076  12.8159  13.2690  13.2723
    13.6595  13.6873  14.4811  14.4933

          k = 0.0000 0.2309 0.2658 (  6369 PWs)   bands (ev):

    -6.2676  -6.2665  -5.9277  -5.9266  -4.9861  -4.9853  -1.9969  -1.9818
    -0.6476  -0.6314   0.3656   0.3867   2.6674   2.8083   3.2188   3.3059
     3.6707   3.8126   3.9313   3.9890   4.2164   4.2354   4.7247   4.8100
     5.2354   5.2654   5.7841   5.9176   6.5786   6.6357   7.4248   7.4288
     7.5604   7.5624   7.9165   7.9368   8.7747   8.8051   9.1518   9.1719
     9.7747   9.7785  10.5187  10.5846  10.5881  10.6035  10.7142  10.7177
    11.2690  11.2754  12.1499  12.1529  12.2579  12.2613  12.9882  12.9942
    13.7148  13.7426  13.8446  13.8725

          k = 0.0000 0.4619 0.0000 (  6394 PWs)   bands (ev):

    -5.3868  -5.3852  -4.8200  -4.8192  -4.8044  -4.8036  -2.2269  -2.2143
    -1.5890  -1.5876  -0.8940  -0.8619   1.1577   1.2619   2.4716   2.5379
     2.8323   2.9019   3.2368   3.2429   3.8731   3.8902   4.1964   4.2216
     4.3241   4.3339   4.9528   4.9818   5.0560   5.0901   8.2118   8.2180
     8.3059   8.3555   8.6257   8.6270   8.7305   8.7522   8.9387   8.9391
     9.0004   9.0282  10.7176  10.7296  11.6285  11.6430  11.9554  11.9557
    12.2646  12.2796  13.2984  13.3464  13.5944  13.5955  14.4322  14.4548
    15.4757  15.4806  15.5387  15.5771

          k = 0.0000 0.4619 0.1329 (  6381 PWs)   bands (ev):

    -5.3011  -5.2999  -5.0937  -5.0921  -4.6154  -4.6139  -2.0142  -2.0130
    -1.8959  -1.8726  -0.7945  -0.7845   1.4296   1.5042   1.9042   1.9883
     2.9320   3.0056   3.3317   3.3345   3.5419   3.5684   4.2008   4.2313
     4.5155   4.5475   5.1147   5.1325   6.1496   6.1923   7.1535   7.1754
     7.4937   7.5196   7.6600   7.6715   8.9870   8.9876   9.4476   9.4531
     9.8466   9.8471  11.4365  11.4606  11.7688  11.7715  12.0076  12.0476
    12.1717  12.2459  12.5822  12.6015  13.8974  13.8992  15.0239  15.0365
    15.0449  15.0743  15.5517  15.5595

          k = 0.0000 0.4619 0.2658 (  6381 PWs)   bands (ev):

    -5.3093  -5.3076  -5.0783  -5.0779  -4.6215  -4.6208  -2.2545  -2.2489
    -1.3585  -1.3231  -1.1056  -1.1047   0.9507   1.0445   2.9078   2.9572
     3.0795   3.1193   3.4631   3.4942   3.5632   3.5869   3.8344   3.8974
     3.9077   3.9176   4.8510   4.8832   6.0726   6.1150   7.2427   7.2516
     7.4024   7.4129   8.7004   8.7050   9.5146   9.5159   9.5585   9.5601
    10.2259  10.2653  10.4286  10.4591  10.8062  10.8062  11.1536  11.1599
    11.6725  11.6730  13.5496  13.5543  14.2830  14.3069  15.3183  15.3236
    15.9947  16.0013  16.2802  16.2960

          k = 0.0000 0.6928 0.0000 (  6394 PWs)   bands (ev):

    -5.3868  -5.3852  -4.8200  -4.8192  -4.8044  -4.8036  -2.2269  -2.2143
    -1.5890  -1.5876  -0.8940  -0.8619   1.1577   1.2619   2.4716   2.5379
     2.8323   2.9019   3.2368   3.2429   3.8731   3.8902   4.1964   4.2216
     4.3241   4.3339   4.9528   4.9818   5.0560   5.0901   8.2118   8.2180
     8.3059   8.3555   8.6257   8.6270   8.7305   8.7522   8.9387   8.9391
     9.0004   9.0282  10.7176  10.7296  11.6285  11.6430  11.9554  11.9557
    12.2646  12.2796  13.2984  13.3464  13.5944  13.5955  14.4322  14.4548
    15.4757  15.4806  15.5387  15.5771

          k = 0.0000 0.6928 0.1329 (  6381 PWs)   bands (ev):

    -5.3093  -5.3076  -5.0783  -5.0779  -4.6215  -4.6208  -2.2545  -2.2489
    -1.3585  -1.3231  -1.1056  -1.1047   0.9507   1.0445   2.9078   2.9572
     3.0795   3.1193   3.4631   3.4942   3.5632   3.5869   3.8344   3.8974
     3.9077   3.9176   4.8510   4.8832   6.0726   6.1150   7.2427   7.2516
     7.4024   7.4129   8.7004   8.7050   9.5146   9.5159   9.5585   9.5601
    10.2259  10.2653  10.4286  10.4591  10.8062  10.8062  11.1536  11.1599
    11.6725  11.6730  13.5496  13.5543  14.2830  14.3069  15.3183  15.3236
    15.9947  16.0013  16.2802  16.2960

          k = 0.0000 0.6928 0.2658 (  6381 PWs)   bands (ev):

    -5.3011  -5.2999  -5.0937  -5.0921  -4.6154  -4.6139  -2.0142  -2.0130
    -1.8959  -1.8726  -0.7945  -0.7845   1.4296   1.5042   1.9042   1.9883
     2.9320   3.0056   3.3317   3.3345   3.5419   3.5684   4.2008   4.2313
     4.5155   4.5475   5.1147   5.1325   6.1496   6.1923   7.1535   7.1754
     7.4937   7.5196   7.6600   7.6715   8.9870   8.9876   9.4476   9.4531
     9.8466   9.8471  11.4365  11.4606  11.7688  11.7715  12.0076  12.0476
    12.1717  12.2459  12.5822  12.6015  13.8974  13.8992  15.0239  15.0365
    15.0449  15.0743  15.5517  15.5595

          k = 0.0000 0.9238 0.0000 (  6361 PWs)   bands (ev):

    -6.3820  -6.3809  -5.4452  -5.4440  -5.4328  -5.4319  -1.4339  -1.4177
    -1.2172  -1.1998   0.3981   0.4136   2.5942   2.6799   3.0619   3.3087
     3.7245   3.8340   4.2043   4.2985   4.4879   4.6271   4.7946   4.8157
     4.9223   4.9551   5.8596   5.9344   5.9792   6.0402   7.5352   7.5392
     7.9463   7.9487   7.9713   8.0265   9.2266   9.3635   9.3645   9.3848
     9.6770   9.6946   9.7018   9.7775  10.1057  10.1637  11.1686  11.1853
    11.2114  11.2282  11.5671  11.5691  12.7525  12.7729  12.8678  12.8800
    13.1164  13.1298  13.7180  13.7229

          k = 0.0000 0.9238 0.1329 (  6369 PWs)   bands (ev):

    -6.2676  -6.2665  -5.9277  -5.9266  -4.9861  -4.9853  -1.9969  -1.9818
    -0.6476  -0.6314   0.3656   0.3867   2.6674   2.8083   3.2188   3.3059
     3.6707   3.8126   3.9313   3.9890   4.2164   4.2354   4.7247   4.8100
     5.2354   5.2654   5.7841   5.9176   6.5786   6.6357   7.4248   7.4288
     7.5604   7.5624   7.9165   7.9368   8.7747   8.8051   9.1518   9.1719
     9.7747   9.7785  10.5187  10.5846  10.5881  10.6035  10.7142  10.7177
    11.2690  11.2754  12.1499  12.1529  12.2579  12.2613  12.9882  12.9942
    13.7148  13.7426  13.8446  13.8725

          k = 0.0000 0.9238 0.2658 (  6369 PWs)   bands (ev):

    -6.2641  -6.2630  -5.9355  -5.9343  -4.9771  -4.9765  -2.0653  -2.0502
    -0.2661  -0.2443  -0.0017   0.0128   2.4457   2.5444   3.3428   3.5699
     3.8797   3.9407   4.1733   4.2942   4.3672   4.4052   4.8584   5.0212
     5.0278   5.0602   5.2488   5.3128   5.9151   5.9471   8.0804   8.0841
     8.1538   8.2347   8.4590   8.4610   8.5823   8.5957   8.8394   8.8667
     9.4726   9.5052   9.6943   9.7337  10.4984  10.5002  10.9823  11.0318
    11.2253  11.2512  11.9776  11.9887  12.8076  12.8159  13.2690  13.2723
    13.6595  13.6873  14.4811  14.4933

          k = 0.2000 0.1155 0.0000 (  6361 PWs)   bands (ev):

    -6.3820  -6.3809  -5.4452  -5.4440  -5.4328  -5.4319  -1.4339  -1.4177
    -1.2172  -1.1998   0.3981   0.4136   2.5942   2.6799   3.0619   3.3087
     3.7245   3.8340   4.2043   4.2985   4.4879   4.6271   4.7946   4.8157
     4.9223   4.9551   5.8596   5.9344   5.9792   6.0402   7.5352   7.5392
     7.9463   7.9487   7.9713   8.0265   9.2266   9.3635   9.3645   9.3848
     9.6770   9.6946   9.7018   9.7775  10.1057  10.1637  11.1686  11.1853
    11.2114  11.2282  11.5671  11.5691  12.7525  12.7729  12.8678  12.8800
    13.1164  13.1298  13.7180  13.7229

          k = 0.2000 0.1155 0.1329 (  6369 PWs)   bands (ev):

    -6.2676  -6.2665  -5.9277  -5.9266  -4.9861  -4.9853  -1.9969  -1.9818
    -0.6476  -0.6314   0.3656   0.3867   2.6674   2.8083   3.2188   3.3059
     3.6707   3.8126   3.9313   3.9890   4.2164   4.2354   4.7247   4.8100
     5.2354   5.2654   5.7841   5.9176   6.5786   6.6357   7.4248   7.4288
     7.5604   7.5624   7.9165   7.9368   8.7747   8.8051   9.1518   9.1719
     9.7747   9.7785  10.5187  10.5846  10.5881  10.6035  10.7142  10.7177
    11.2690  11.2754  12.1499  12.1529  12.2579  12.2613  12.9882  12.9942
    13.7148  13.7426  13.8446  13.8725

          k = 0.2000 0.1155 0.2658 (  6369 PWs)   bands (ev):

    -6.2641  -6.2630  -5.9355  -5.9343  -4.9771  -4.9765  -2.0653  -2.0502
    -0.2661  -0.2443  -0.0017   0.0128   2.4457   2.5444   3.3428   3.5699
     3.8797   3.9407   4.1733   4.2942   4.3672   4.4052   4.8584   5.0212
     5.0278   5.0602   5.2488   5.3128   5.9151   5.9471   8.0804   8.0841
     8.1538   8.2347   8.4590   8.4610   8.5823   8.5957   8.8394   8.8667
     9.4726   9.5052   9.6943   9.7337  10.4984  10.5002  10.9823  11.0318
    11.2253  11.2512  11.9776  11.9887  12.8076  12.8159  13.2690  13.2723
    13.6595  13.6873  14.4811  14.4933

          k = 0.2000 0.3464 0.0000 (  6397 PWs)   bands (ev):

    -5.6851  -5.6836  -4.9379  -4.9376  -4.9370  -4.9368  -1.5448  -1.5446
    -1.5205  -1.5203  -1.0043  -0.9872   2.1335   2.1338   2.3796   2.3798
     2.4674   2.4677   2.7033   2.7035   2.9525   3.0414   5.0794   5.0795
     5.1671   5.1672   5.1683   5.2225   6.1704   6.2589   7.2825   7.3193
     7.6174   7.6289   8.4816   8.4817   8.5256   8.5257  10.7501  10.7502
    10.7667  10.7667  10.9580  10.9652  11.2219  11.2220  11.2746  11.2747
    11.9946  11.9946  12.0218  12.0219  12.0813  12.0907  13.3346  13.3377
    15.3396  15.3396  15.3567  15.3567

          k = 0.2000 0.3464 0.1329 (  6375 PWs)   bands (ev):

    -5.5871  -5.5856  -5.3131  -5.3118  -4.6330  -4.6323  -1.7380  -1.7077
    -1.3028  -1.2837  -1.0938  -1.0765   1.5936   1.8396   1.9618   2.1929
     2.9369   3.1141   3.2022   3.2593   3.4046   3.6753   4.3518   4.3815
     4.4993   4.5475   5.1600   5.2355   5.8736   5.9589   7.6886   7.7023
     8.2627   8.3054   8.6062   8.6345   9.2806   9.4370   9.7990   9.9043
    10.2657  10.3741  10.4961  10.5227  10.9939  11.0245  11.4649  11.4715
    11.4781  11.4987  11.9545  11.9891  12.8634  12.9081  13.5779  13.5918
    14.5102  14.5225  16.3053  16.3434

          k = 0.2000 0.3464 0.2658 (  6375 PWs)   bands (ev):

    -5.5871  -5.5856  -5.3131  -5.3118  -4.6330  -4.6323  -1.7380  -1.7077
    -1.3028  -1.2837  -1.0938  -1.0765   1.5936   1.8396   1.9618   2.1929
     2.9369   3.1141   3.2022   3.2593   3.4046   3.6753   4.3518   4.3815
     4.4993   4.5475   5.1600   5.2355   5.8736   5.9589   7.6886   7.7023
     8.2627   8.3054   8.6062   8.6345   9.2806   9.4370   9.7990   9.9043
    10.2657  10.3741  10.4961  10.5227  10.9939  11.0245  11.4649  11.4715
    11.4781  11.4987  11.9545  11.9891  12.8634  12.9081  13.5779  13.5918
    14.5102  14.5225  16.3053  16.3434

          k = 0.2000 0.5774 0.0000 (  6397 PWs)   bands (ev):

    -4.7431  -4.7429  -4.7413  -4.7411  -4.5636  -4.5620  -2.1134  -2.1131
    -2.0924  -2.0921  -1.5015  -1.4615   0.9981   1.0912   2.1349   2.1350
     2.2161   2.2162   3.0372   3.2231   3.5242   3.5243   3.5499   3.6033
     3.6033   3.6931   5.4092   5.4093   5.4902   5.4903   7.7075   7.7075
     7.7347   7.7347   9.5266   9.5267   9.5391   9.5392   9.8125   9.9823
    10.6782  10.8960  11.0897  11.1830  11.4222  11.4223  11.4508  11.4508
    13.3115  13.3117  13.3404  13.3405  13.4477  13.4542  13.8907  13.8907
    13.9106  13.9106  15.6606  15.6606

          k = 0.2000 0.5774 0.1329 (  6399 PWs)   bands (ev):

    -4.7727  -4.7713  -4.6775  -4.6756  -4.5998  -4.5980  -2.3265  -2.3089
    -1.8128  -1.7853  -1.5836  -1.5480   1.2978   1.4119   1.8346   2.0169
     2.2972   2.4058   2.4704   2.5127   2.7021   2.8474   4.0000   4.2013
     4.5651   4.6129   5.1852   5.2838   5.6574   5.7173   7.6379   7.6671
     7.7015   7.7216   8.9009   8.9474   9.0836   9.1512  10.3057  10.3744
    10.5101  10.5324  11.2122  11.2375  11.4417  11.4580  12.1287  12.1631
    12.6952  12.7037  12.8504  12.9001  13.8581  13.8890  14.1295  14.1429
    14.4197  14.4251  14.9347  14.9427

          k = 0.2000 0.5774 0.2658 (  6399 PWs)   bands (ev):

    -4.7727  -4.7713  -4.6775  -4.6756  -4.5998  -4.5980  -2.3265  -2.3089
    -1.8128  -1.7853  -1.5836  -1.5480   1.2978   1.4119   1.8346   2.0169
     2.2972   2.4058   2.4704   2.5127   2.7021   2.8474   4.0000   4.2013
     4.5651   4.6129   5.1852   5.2838   5.6574   5.7173   7.6379   7.6671
     7.7015   7.7216   8.9009   8.9474   9.0836   9.1512  10.3057  10.3744
    10.5101  10.5324  11.2122  11.2375  11.4417  11.4580  12.1287  12.1631
    12.6952  12.7037  12.8504  12.9001  13.8581  13.8890  14.1295  14.1429
    14.4197  14.4251  14.9347  14.9427

          k = 0.2000 0.8083 0.0000 (  6397 PWs)   bands (ev):

    -5.6851  -5.6836  -4.9379  -4.9376  -4.9370  -4.9368  -1.5448  -1.5446
    -1.5205  -1.5203  -1.0043  -0.9872   2.1335   2.1338   2.3796   2.3798
     2.4674   2.4677   2.7033   2.7035   2.9525   3.0414   5.0794   5.0795
     5.1671   5.1672   5.1683   5.2225   6.1704   6.2589   7.2825   7.3193
     7.6174   7.6289   8.4816   8.4817   8.5256   8.5257  10.7501  10.7502
    10.7667  10.7667  10.9580  10.9652  11.2219  11.2220  11.2746  11.2747
    11.9946  11.9946  12.0218  12.0219  12.0813  12.0907  13.3346  13.3377
    15.3396  15.3396  15.3567  15.3567

          k = 0.2000 0.8083 0.1329 (  6375 PWs)   bands (ev):

    -5.5871  -5.5856  -5.3131  -5.3118  -4.6330  -4.6323  -1.7380  -1.7077
    -1.3028  -1.2837  -1.0938  -1.0765   1.5936   1.8396   1.9618   2.1929
     2.9369   3.1141   3.2022   3.2593   3.4046   3.6753   4.3518   4.3815
     4.4993   4.5475   5.1600   5.2355   5.8736   5.9589   7.6886   7.7023
     8.2627   8.3054   8.6062   8.6345   9.2806   9.4370   9.7990   9.9043
    10.2657  10.3741  10.4961  10.5227  10.9939  11.0245  11.4649  11.4715
    11.4781  11.4987  11.9545  11.9891  12.8634  12.9081  13.5779  13.5918
    14.5102  14.5225  16.3053  16.3434

          k = 0.2000 0.8083 0.2658 (  6375 PWs)   bands (ev):

    -5.5871  -5.5856  -5.3131  -5.3118  -4.6330  -4.6323  -1.7380  -1.7077
    -1.3028  -1.2837  -1.0938  -1.0765   1.5936   1.8396   1.9618   2.1929
     2.9369   3.1141   3.2022   3.2593   3.4046   3.6753   4.3518   4.3815
     4.4993   4.5475   5.1600   5.2355   5.8736   5.9589   7.6886   7.7023
     8.2627   8.3054   8.6062   8.6345   9.2806   9.4370   9.7990   9.9043
    10.2657  10.3741  10.4961  10.5227  10.9939  11.0245  11.4649  11.4715
    11.4781  11.4987  11.9545  11.9891  12.8634  12.9081  13.5779  13.5918
    14.5102  14.5225  16.3053  16.3434

          k = 0.2000 1.0392 0.0000 (  6361 PWs)   bands (ev):

    -6.3820  -6.3809  -5.4452  -5.4440  -5.4328  -5.4319  -1.4339  -1.4177
    -1.2172  -1.1998   0.3981   0.4136   2.5942   2.6799   3.0619   3.3087
     3.7245   3.8340   4.2043   4.2985   4.4879   4.6271   4.7946   4.8157
     4.9223   4.9551   5.8596   5.9344   5.9792   6.0402   7.5352   7.5392
     7.9463   7.9487   7.9713   8.0265   9.2266   9.3635   9.3645   9.3848
     9.6770   9.6946   9.7018   9.7775  10.1057  10.1637  11.1686  11.1853
    11.2114  11.2282  11.5671  11.5691  12.7525  12.7729  12.8678  12.8800
    13.1164  13.1298  13.7180  13.7229

          k = 0.2000 1.0392 0.1329 (  6369 PWs)   bands (ev):

    -6.2641  -6.2630  -5.9355  -5.9343  -4.9771  -4.9765  -2.0653  -2.0502
    -0.2661  -0.2443  -0.0017   0.0128   2.4457   2.5444   3.3428   3.5699
     3.8797   3.9407   4.1733   4.2942   4.3672   4.4052   4.8584   5.0212
     5.0278   5.0602   5.2488   5.3128   5.9151   5.9471   8.0804   8.0841
     8.1538   8.2347   8.4590   8.4610   8.5823   8.5957   8.8394   8.8667
     9.4726   9.5052   9.6943   9.7337  10.4984  10.5002  10.9823  11.0318
    11.2253  11.2512  11.9776  11.9887  12.8076  12.8159  13.2690  13.2723
    13.6595  13.6873  14.4811  14.4933

          k = 0.2000 1.0392 0.2658 (  6369 PWs)   bands (ev):

    -6.2676  -6.2665  -5.9277  -5.9266  -4.9861  -4.9853  -1.9969  -1.9818
    -0.6476  -0.6314   0.3656   0.3867   2.6674   2.8083   3.2188   3.3059
     3.6707   3.8126   3.9313   3.9890   4.2164   4.2354   4.7247   4.8100
     5.2354   5.2654   5.7841   5.9176   6.5786   6.6357   7.4248   7.4288
     7.5604   7.5624   7.9165   7.9368   8.7747   8.8051   9.1518   9.1719
     9.7747   9.7785  10.5187  10.5846  10.5881  10.6035  10.7142  10.7177
    11.2690  11.2754  12.1499  12.1529  12.2579  12.2613  12.9882  12.9942
    13.7148  13.7426  13.8446  13.8725

          k = 0.4000 0.2309 0.0000 (  6394 PWs)   bands (ev):

    -5.3868  -5.3852  -4.8200  -4.8192  -4.8044  -4.8036  -2.2269  -2.2143
    -1.5890  -1.5876  -0.8940  -0.8619   1.1577   1.2619   2.4716   2.5379
     2.8323   2.9019   3.2368   3.2429   3.8731   3.8902   4.1964   4.2216
     4.3241   4.3339   4.9528   4.9818   5.0560   5.0901   8.2118   8.2180
     8.3059   8.3555   8.6257   8.6270   8.7305   8.7522   8.9387   8.9391
     9.0004   9.0282  10.7176  10.7296  11.6285  11.6430  11.9554  11.9557
    12.2646  12.2796  13.2984  13.3464  13.5944  13.5955  14.4322  14.4548
    15.4757  15.4806  15.5387  15.5771

          k = 0.4000 0.2309 0.1329 (  6381 PWs)   bands (ev):

    -5.3093  -5.3076  -5.0783  -5.0779  -4.6215  -4.6208  -2.2545  -2.2489
    -1.3585  -1.3231  -1.1056  -1.1047   0.9507   1.0445   2.9078   2.9572
     3.0795   3.1193   3.4631   3.4942   3.5632   3.5869   3.8344   3.8974
     3.9077   3.9176   4.8510   4.8832   6.0726   6.1150   7.2427   7.2516
     7.4024   7.4129   8.7004   8.7050   9.5146   9.5159   9.5585   9.5601
    10.2259  10.2653  10.4286  10.4591  10.8062  10.8062  11.1536  11.1599
    11.6725  11.6730  13.5496  13.5543  14.2830  14.3069  15.3183  15.3236
    15.9947  16.0013  16.2802  16.2960

          k = 0.4000 0.2309 0.2658 (  6381 PWs)   bands (ev):

    -5.3011  -5.2999  -5.0937  -5.0921  -4.6154  -4.6139  -2.0142  -2.0130
    -1.8959  -1.8726  -0.7945  -0.7845   1.4296   1.5042   1.9042   1.9883
     2.9320   3.0056   3.3317   3.3345   3.5419   3.5684   4.2008   4.2313
     4.5155   4.5475   5.1147   5.1325   6.1496   6.1923   7.1535   7.1754
     7.4937   7.5196   7.6600   7.6715   8.9870   8.9876   9.4476   9.4531
     9.8466   9.8471  11.4365  11.4606  11.7688  11.7715  12.0076  12.0476
    12.1717  12.2459  12.5822  12.6015  13.8974  13.8992  15.0239  15.0365
    15.0449  15.0743  15.5517  15.5595

          k = 0.4000 0.4619 0.0000 (  6397 PWs)   bands (ev):

    -4.7431  -4.7429  -4.7413  -4.7411  -4.5636  -4.5620  -2.1134  -2.1131
    -2.0924  -2.0921  -1.5015  -1.4615   0.9981   1.0912   2.1349   2.1350
     2.2161   2.2162   3.0372   3.2231   3.5242   3.5243   3.5499   3.6033
     3.6033   3.6931   5.4092   5.4093   5.4902   5.4903   7.7075   7.7075
     7.7347   7.7347   9.5266   9.5267   9.5391   9.5392   9.8125   9.9823
    10.6782  10.8960  11.0897  11.1830  11.4222  11.4223  11.4508  11.4508
    13.3115  13.3117  13.3404  13.3405  13.4477  13.4542  13.8907  13.8907
    13.9106  13.9106  15.6606  15.6606

          k = 0.4000 0.4619 0.1329 (  6399 PWs)   bands (ev):

    -4.7727  -4.7713  -4.6775  -4.6756  -4.5998  -4.5980  -2.3265  -2.3089
    -1.8128  -1.7853  -1.5836  -1.5480   1.2978   1.4119   1.8346   2.0169
     2.2972   2.4058   2.4704   2.5127   2.7021   2.8474   4.0000   4.2013
     4.5651   4.6129   5.1852   5.2838   5.6574   5.7173   7.6379   7.6671
     7.7015   7.7216   8.9009   8.9474   9.0836   9.1512  10.3057  10.3744
    10.5101  10.5324  11.2122  11.2375  11.4417  11.4580  12.1287  12.1631
    12.6952  12.7037  12.8504  12.9001  13.8581  13.8890  14.1295  14.1429
    14.4197  14.4251  14.9347  14.9427

          k = 0.4000 0.4619 0.2658 (  6399 PWs)   bands (ev):

    -4.7727  -4.7713  -4.6775  -4.6756  -4.5998  -4.5980  -2.3265  -2.3089
    -1.8128  -1.7853  -1.5836  -1.5480   1.2978   1.4119   1.8346   2.0169
     2.2972   2.4058   2.4704   2.5127   2.7021   2.8474   4.0000   4.2013
     4.5651   4.6129   5.1852   5.2838   5.6574   5.7173   7.6379   7.6671
     7.7015   7.7216   8.9009   8.9474   9.0836   9.1512  10.3057  10.3744
    10.5101  10.5324  11.2122  11.2375  11.4417  11.4580  12.1287  12.1631
    12.6952  12.7037  12.8504  12.9001  13.8581  13.8890  14.1295  14.1429
    14.4197  14.4251  14.9347  14.9427

          k = 0.4000 0.6928 0.0000 (  6397 PWs)   bands (ev):

    -4.7431  -4.7429  -4.7413  -4.7411  -4.5636  -4.5620  -2.1134  -2.1131
    -2.0924  -2.0921  -1.5015  -1.4615   0.9981   1.0912   2.1349   2.1350
     2.2161   2.2162   3.0372   3.2231   3.5242   3.5243   3.5499   3.6033
     3.6033   3.6931   5.4092   5.4093   5.4902   5.4903   7.7075   7.7075
     7.7347   7.7347   9.5266   9.5267   9.5391   9.5392   9.8125   9.9823
    10.6782  10.8960  11.0897  11.1830  11.4222  11.4223  11.4508  11.4508
    13.3115  13.3117  13.3404  13.3405  13.4477  13.4542  13.8907  13.8907
    13.9106  13.9106  15.6606  15.6606

          k = 0.4000 0.6928 0.1329 (  6399 PWs)   bands (ev):

    -4.7727  -4.7713  -4.6775  -4.6756  -4.5998  -4.5980  -2.3265  -2.3089
    -1.8128  -1.7853  -1.5836  -1.5480   1.2978   1.4119   1.8346   2.0169
     2.2972   2.4058   2.4704   2.5127   2.7021   2.8474   4.0000   4.2013
     4.5651   4.6129   5.1852   5.2838   5.6574   5.7173   7.6379   7.6671
     7.7015   7.7216   8.9009   8.9474   9.0836   9.1512  10.3057  10.3744
    10.5101  10.5324  11.2122  11.2375  11.4417  11.4580  12.1287  12.1631
    12.6952  12.7037  12.8504  12.9001  13.8581  13.8890  14.1295  14.1429
    14.4197  14.4251  14.9347  14.9427

          k = 0.4000 0.6928 0.2658 (  6399 PWs)   bands (ev):

    -4.7727  -4.7713  -4.6775  -4.6756  -4.5998  -4.5980  -2.3265  -2.3089
    -1.8128  -1.7853  -1.5836  -1.5480   1.2978   1.4119   1.8346   2.0169
     2.2972   2.4058   2.4704   2.5127   2.7021   2.8474   4.0000   4.2013
     4.5651   4.6129   5.1852   5.2838   5.6574   5.7173   7.6379   7.6671
     7.7015   7.7216   8.9009   8.9474   9.0836   9.1512  10.3057  10.3744
    10.5101  10.5324  11.2122  11.2375  11.4417  11.4580  12.1287  12.1631
    12.6952  12.7037  12.8504  12.9001  13.8581  13.8890  14.1295  14.1429
    14.4197  14.4251  14.9347  14.9427

          k = 0.4000 0.9238 0.0000 (  6394 PWs)   bands (ev):

    -5.3868  -5.3852  -4.8200  -4.8192  -4.8044  -4.8036  -2.2269  -2.2143
    -1.5890  -1.5876  -0.8940  -0.8619   1.1577   1.2619   2.4716   2.5379
     2.8323   2.9019   3.2368   3.2429   3.8731   3.8902   4.1964   4.2216
     4.3241   4.3339   4.9528   4.9818   5.0560   5.0901   8.2118   8.2180
     8.3059   8.3555   8.6257   8.6270   8.7305   8.7522   8.9387   8.9391
     9.0004   9.0282  10.7176  10.7296  11.6285  11.6430  11.9554  11.9557
    12.2646  12.2796  13.2984  13.3464  13.5944  13.5955  14.4322  14.4548
    15.4757  15.4806  15.5387  15.5771

          k = 0.4000 0.9238 0.1329 (  6381 PWs)   bands (ev):

    -5.3011  -5.2999  -5.0937  -5.0921  -4.6154  -4.6139  -2.0142  -2.0130
    -1.8959  -1.8726  -0.7945  -0.7845   1.4296   1.5042   1.9042   1.9883
     2.9320   3.0056   3.3317   3.3345   3.5419   3.5684   4.2008   4.2313
     4.5155   4.5475   5.1147   5.1325   6.1496   6.1923   7.1535   7.1754
     7.4937   7.5196   7.6600   7.6715   8.9870   8.9876   9.4476   9.4531
     9.8466   9.8471  11.4365  11.4606  11.7688  11.7715  12.0076  12.0476
    12.1717  12.2459  12.5822  12.6015  13.8974  13.8992  15.0239  15.0365
    15.0449  15.0743  15.5517  15.5595

          k = 0.4000 0.9238 0.2658 (  6381 PWs)   bands (ev):

    -5.3093  -5.3076  -5.0783  -5.0779  -4.6215  -4.6208  -2.2545  -2.2489
    -1.3585  -1.3231  -1.1056  -1.1047   0.9507   1.0445   2.9078   2.9572
     3.0795   3.1193   3.4631   3.4942   3.5632   3.5869   3.8344   3.8974
     3.9077   3.9176   4.8510   4.8832   6.0726   6.1150   7.2427   7.2516
     7.4024   7.4129   8.7004   8.7050   9.5146   9.5159   9.5585   9.5601
    10.2259  10.2653  10.4286  10.4591  10.8062  10.8062  11.1536  11.1599
    11.6725  11.6730  13.5496  13.5543  14.2830  14.3069  15.3183  15.3236
    15.9947  16.0013  16.2802  16.2960

          k = 0.4000 1.1547 0.0000 (  6397 PWs)   bands (ev):

    -5.6851  -5.6836  -4.9379  -4.9376  -4.9370  -4.9368  -1.5448  -1.5446
    -1.5205  -1.5203  -1.0043  -0.9872   2.1335   2.1338   2.3796   2.3798
     2.4674   2.4677   2.7033   2.7035   2.9525   3.0414   5.0794   5.0795
     5.1671   5.1672   5.1683   5.2225   6.1704   6.2589   7.2825   7.3193
     7.6174   7.6289   8.4816   8.4817   8.5256   8.5257  10.7501  10.7502
    10.7667  10.7667  10.9580  10.9652  11.2219  11.2220  11.2746  11.2747
    11.9946  11.9946  12.0218  12.0219  12.0813  12.0907  13.3346  13.3377
    15.3396  15.3396  15.3567  15.3567

          k = 0.4000 1.1547 0.1329 (  6375 PWs)   bands (ev):

    -5.5871  -5.5856  -5.3131  -5.3118  -4.6330  -4.6323  -1.7380  -1.7077
    -1.3028  -1.2837  -1.0938  -1.0765   1.5936   1.8396   1.9618   2.1929
     2.9369   3.1141   3.2022   3.2593   3.4046   3.6753   4.3518   4.3815
     4.4993   4.5475   5.1600   5.2355   5.8736   5.9589   7.6886   7.7023
     8.2627   8.3054   8.6062   8.6345   9.2806   9.4370   9.7990   9.9043
    10.2657  10.3741  10.4961  10.5227  10.9939  11.0245  11.4649  11.4715
    11.4781  11.4987  11.9545  11.9891  12.8634  12.9081  13.5779  13.5918
    14.5102  14.5225  16.3053  16.3434

          k = 0.4000 1.1547 0.2658 (  6375 PWs)   bands (ev):

    -5.5871  -5.5856  -5.3131  -5.3118  -4.6330  -4.6323  -1.7380  -1.7077
    -1.3028  -1.2837  -1.0938  -1.0765   1.5936   1.8396   1.9618   2.1929
     2.9369   3.1141   3.2022   3.2593   3.4046   3.6753   4.3518   4.3815
     4.4993   4.5475   5.1600   5.2355   5.8736   5.9589   7.6886   7.7023
     8.2627   8.3054   8.6062   8.6345   9.2806   9.4370   9.7990   9.9043
    10.2657  10.3741  10.4961  10.5227  10.9939  11.0245  11.4649  11.4715
    11.4781  11.4987  11.9545  11.9891  12.8634  12.9081  13.5779  13.5918
    14.5102  14.5225  16.3053  16.3434

          k = 0.6000 0.3464 0.0000 (  6394 PWs)   bands (ev):

    -5.3868  -5.3852  -4.8200  -4.8192  -4.8044  -4.8036  -2.2269  -2.2143
    -1.5890  -1.5876  -0.8940  -0.8619   1.1577   1.2619   2.4716   2.5379
     2.8323   2.9019   3.2368   3.2429   3.8731   3.8902   4.1964   4.2216
     4.3241   4.3339   4.9528   4.9818   5.0560   5.0901   8.2118   8.2180
     8.3059   8.3555   8.6257   8.6270   8.7305   8.7522   8.9387   8.9391
     9.0004   9.0282  10.7176  10.7296  11.6285  11.6430  11.9554  11.9557
    12.2646  12.2796  13.2984  13.3464  13.5944  13.5955  14.4322  14.4548
    15.4757  15.4806  15.5387  15.5771

          k = 0.6000 0.3464 0.1329 (  6381 PWs)   bands (ev):

    -5.3011  -5.2999  -5.0937  -5.0921  -4.6154  -4.6139  -2.0142  -2.0130
    -1.8959  -1.8726  -0.7945  -0.7845   1.4296   1.5042   1.9042   1.9883
     2.9320   3.0056   3.3317   3.3345   3.5419   3.5684   4.2008   4.2313
     4.5155   4.5475   5.1147   5.1325   6.1496   6.1923   7.1535   7.1754
     7.4937   7.5196   7.6600   7.6715   8.9870   8.9876   9.4476   9.4531
     9.8466   9.8471  11.4365  11.4606  11.7688  11.7715  12.0076  12.0476
    12.1717  12.2459  12.5822  12.6015  13.8974  13.8992  15.0239  15.0365
    15.0449  15.0743  15.5517  15.5595

          k = 0.6000 0.3464 0.2658 (  6381 PWs)   bands (ev):

    -5.3093  -5.3076  -5.0783  -5.0779  -4.6215  -4.6208  -2.2545  -2.2489
    -1.3585  -1.3231  -1.1056  -1.1047   0.9507   1.0445   2.9078   2.9572
     3.0795   3.1193   3.4631   3.4942   3.5632   3.5869   3.8344   3.8974
     3.9077   3.9176   4.8510   4.8832   6.0726   6.1150   7.2427   7.2516
     7.4024   7.4129   8.7004   8.7050   9.5146   9.5159   9.5585   9.5601
    10.2259  10.2653  10.4286  10.4591  10.8062  10.8062  11.1536  11.1599
    11.6725  11.6730  13.5496  13.5543  14.2830  14.3069  15.3183  15.3236
    15.9947  16.0013  16.2802  16.2960

          k = 0.6000 0.5774 0.0000 (  6397 PWs)   bands (ev):

    -5.6851  -5.6836  -4.9379  -4.9376  -4.9370  -4.9368  -1.5448  -1.5446
    -1.5205  -1.5203  -1.0043  -0.9872   2.1335   2.1338   2.3796   2.3798
     2.4674   2.4677   2.7033   2.7035   2.9525   3.0414   5.0794   5.0795
     5.1671   5.1672   5.1683   5.2225   6.1704   6.2589   7.2825   7.3193
     7.6174   7.6289   8.4816   8.4817   8.5256   8.5257  10.7501  10.7502
    10.7667  10.7667  10.9580  10.9652  11.2219  11.2220  11.2746  11.2747
    11.9946  11.9946  12.0218  12.0219  12.0813  12.0907  13.3346  13.3377
    15.3396  15.3396  15.3567  15.3567

          k = 0.6000 0.5774 0.1329 (  6375 PWs)   bands (ev):

    -5.5871  -5.5856  -5.3131  -5.3118  -4.6330  -4.6323  -1.7380  -1.7077
    -1.3028  -1.2837  -1.0938  -1.0765   1.5936   1.8396   1.9618   2.1929
     2.9369   3.1141   3.2022   3.2593   3.4046   3.6753   4.3518   4.3815
     4.4993   4.5475   5.1600   5.2355   5.8736   5.9589   7.6886   7.7023
     8.2627   8.3054   8.6062   8.6345   9.2806   9.4370   9.7990   9.9043
    10.2657  10.3741  10.4961  10.5227  10.9939  11.0245  11.4649  11.4715
    11.4781  11.4987  11.9545  11.9891  12.8634  12.9081  13.5779  13.5918
    14.5102  14.5225  16.3053  16.3434

          k = 0.6000 0.5774 0.2658 (  6375 PWs)   bands (ev):

    -5.5871  -5.5856  -5.3131  -5.3118  -4.6330  -4.6323  -1.7380  -1.7077
    -1.3028  -1.2837  -1.0938  -1.0765   1.5936   1.8396   1.9618   2.1929
     2.9369   3.1141   3.2022   3.2593   3.4046   3.6753   4.3518   4.3815
     4.4993   4.5475   5.1600   5.2355   5.8736   5.9589   7.6886   7.7023
     8.2627   8.3054   8.6062   8.6345   9.2806   9.4370   9.7990   9.9043
    10.2657  10.3741  10.4961  10.5227  10.9939  11.0245  11.4649  11.4715
    11.4781  11.4987  11.9545  11.9891  12.8634  12.9081  13.5779  13.5918
    14.5102  14.5225  16.3053  16.3434

          k = 0.6000 0.8083 0.0000 (  6394 PWs)   bands (ev):

    -5.3868  -5.3852  -4.8200  -4.8192  -4.8044  -4.8036  -2.2269  -2.2143
    -1.5890  -1.5876  -0.8940  -0.8619   1.1577   1.2619   2.4716   2.5379
     2.8323   2.9019   3.2368   3.2429   3.8731   3.8902   4.1964   4.2216
     4.3241   4.3339   4.9528   4.9818   5.0560   5.0901   8.2118   8.2180
     8.3059   8.3555   8.6257   8.6270   8.7305   8.7522   8.9387   8.9391
     9.0004   9.0282  10.7176  10.7296  11.6285  11.6430  11.9554  11.9557
    12.2646  12.2796  13.2984  13.3464  13.5944  13.5955  14.4322  14.4548
    15.4757  15.4806  15.5387  15.5771

          k = 0.6000 0.8083 0.1329 (  6381 PWs)   bands (ev):

    -5.3093  -5.3076  -5.0783  -5.0779  -4.6215  -4.6208  -2.2545  -2.2489
    -1.3585  -1.3231  -1.1056  -1.1047   0.9507   1.0445   2.9078   2.9572
     3.0795   3.1193   3.4631   3.4942   3.5632   3.5869   3.8344   3.8974
     3.9077   3.9176   4.8510   4.8832   6.0726   6.1150   7.2427   7.2516
     7.4024   7.4129   8.7004   8.7050   9.5146   9.5159   9.5585   9.5601
    10.2259  10.2653  10.4286  10.4591  10.8062  10.8062  11.1536  11.1599
    11.6725  11.6730  13.5496  13.5543  14.2830  14.3069  15.3183  15.3236
    15.9947  16.0013  16.2802  16.2960

          k = 0.6000 0.8083 0.2658 (  6381 PWs)   bands (ev):

    -5.3011  -5.2999  -5.0937  -5.0921  -4.6154  -4.6139  -2.0142  -2.0130
    -1.8959  -1.8726  -0.7945  -0.7845   1.4296   1.5042   1.9042   1.9883
     2.9320   3.0056   3.3317   3.3345   3.5419   3.5684   4.2008   4.2313
     4.5155   4.5475   5.1147   5.1325   6.1496   6.1923   7.1535   7.1754
     7.4937   7.5196   7.6600   7.6715   8.9870   8.9876   9.4476   9.4531
     9.8466   9.8471  11.4365  11.4606  11.7688  11.7715  12.0076  12.0476
    12.1717  12.2459  12.5822  12.6015  13.8974  13.8992  15.0239  15.0365
    15.0449  15.0743  15.5517  15.5595

          k = 0.6000 1.0392 0.0000 (  6397 PWs)   bands (ev):

    -4.7431  -4.7429  -4.7413  -4.7411  -4.5636  -4.5620  -2.1134  -2.1131
    -2.0924  -2.0921  -1.5015  -1.4615   0.9981   1.0912   2.1349   2.1350
     2.2161   2.2162   3.0372   3.2231   3.5242   3.5243   3.5499   3.6033
     3.6033   3.6931   5.4092   5.4093   5.4902   5.4903   7.7075   7.7075
     7.7347   7.7347   9.5266   9.5267   9.5391   9.5392   9.8125   9.9823
    10.6782  10.8960  11.0897  11.1830  11.4222  11.4223  11.4508  11.4508
    13.3115  13.3117  13.3404  13.3405  13.4477  13.4542  13.8907  13.8907
    13.9106  13.9106  15.6606  15.6606

          k = 0.6000 1.0392 0.1329 (  6399 PWs)   bands (ev):

    -4.7727  -4.7713  -4.6775  -4.6756  -4.5998  -4.5980  -2.3265  -2.3089
    -1.8128  -1.7853  -1.5836  -1.5480   1.2978   1.4119   1.8346   2.0169
     2.2972   2.4058   2.4704   2.5127   2.7021   2.8474   4.0000   4.2013
     4.5651   4.6129   5.1852   5.2838   5.6574   5.7173   7.6379   7.6671
     7.7015   7.7216   8.9009   8.9474   9.0836   9.1512  10.3057  10.3744
    10.5101  10.5324  11.2122  11.2375  11.4417  11.4580  12.1287  12.1631
    12.6952  12.7037  12.8504  12.9001  13.8581  13.8890  14.1295  14.1429
    14.4197  14.4251  14.9347  14.9427

          k = 0.6000 1.0392 0.2658 (  6399 PWs)   bands (ev):

    -4.7727  -4.7713  -4.6775  -4.6756  -4.5998  -4.5980  -2.3265  -2.3089
    -1.8128  -1.7853  -1.5836  -1.5480   1.2978   1.4119   1.8346   2.0169
     2.2972   2.4058   2.4704   2.5127   2.7021   2.8474   4.0000   4.2013
     4.5651   4.6129   5.1852   5.2838   5.6574   5.7173   7.6379   7.6671
     7.7015   7.7216   8.9009   8.9474   9.0836   9.1512  10.3057  10.3744
    10.5101  10.5324  11.2122  11.2375  11.4417  11.4580  12.1287  12.1631
    12.6952  12.7037  12.8504  12.9001  13.8581  13.8890  14.1295  14.1429
    14.4197  14.4251  14.9347  14.9427

          k = 0.6000 1.2702 0.0000 (  6397 PWs)   bands (ev):

    -4.7431  -4.7429  -4.7413  -4.7411  -4.5636  -4.5620  -2.1134  -2.1131
    -2.0924  -2.0921  -1.5015  -1.4615   0.9981   1.0912   2.1349   2.1350
     2.2161   2.2162   3.0372   3.2231   3.5242   3.5243   3.5499   3.6033
     3.6033   3.6931   5.4092   5.4093   5.4902   5.4903   7.7075   7.7075
     7.7347   7.7347   9.5266   9.5267   9.5391   9.5392   9.8125   9.9823
    10.6782  10.8960  11.0897  11.1830  11.4222  11.4223  11.4508  11.4508
    13.3115  13.3117  13.3404  13.3405  13.4477  13.4542  13.8907  13.8907
    13.9106  13.9106  15.6606  15.6606

          k = 0.6000 1.2702 0.1329 (  6399 PWs)   bands (ev):

    -4.7727  -4.7713  -4.6775  -4.6756  -4.5998  -4.5980  -2.3265  -2.3089
    -1.8128  -1.7853  -1.5836  -1.5480   1.2978   1.4119   1.8346   2.0169
     2.2972   2.4058   2.4704   2.5127   2.7021   2.8474   4.0000   4.2013
     4.5651   4.6129   5.1852   5.2838   5.6574   5.7173   7.6379   7.6671
     7.7015   7.7216   8.9009   8.9474   9.0836   9.1512  10.3057  10.3744
    10.5101  10.5324  11.2122  11.2375  11.4417  11.4580  12.1287  12.1631
    12.6952  12.7037  12.8504  12.9001  13.8581  13.8890  14.1295  14.1429
    14.4197  14.4251  14.9347  14.9427

          k = 0.6000 1.2702 0.2658 (  6399 PWs)   bands (ev):

    -4.7727  -4.7713  -4.6775  -4.6756  -4.5998  -4.5980  -2.3265  -2.3089
    -1.8128  -1.7853  -1.5836  -1.5480   1.2978   1.4119   1.8346   2.0169
     2.2972   2.4058   2.4704   2.5127   2.7021   2.8474   4.0000   4.2013
     4.5651   4.6129   5.1852   5.2838   5.6574   5.7173   7.6379   7.6671
     7.7015   7.7216   8.9009   8.9474   9.0836   9.1512  10.3057  10.3744
    10.5101  10.5324  11.2122  11.2375  11.4417  11.4580  12.1287  12.1631
    12.6952  12.7037  12.8504  12.9001  13.8581  13.8890  14.1295  14.1429
    14.4197  14.4251  14.9347  14.9427

          k = 0.8000 0.4619 0.0000 (  6361 PWs)   bands (ev):

    -6.3820  -6.3809  -5.4452  -5.4440  -5.4328  -5.4319  -1.4339  -1.4177
    -1.2172  -1.1998   0.3981   0.4136   2.5942   2.6799   3.0619   3.3087
     3.7245   3.8340   4.2043   4.2985   4.4879   4.6271   4.7946   4.8157
     4.9223   4.9551   5.8596   5.9344   5.9792   6.0402   7.5352   7.5392
     7.9463   7.9487   7.9713   8.0265   9.2266   9.3635   9.3645   9.3848
     9.6770   9.6946   9.7018   9.7775  10.1057  10.1637  11.1686  11.1853
    11.2114  11.2282  11.5671  11.5691  12.7525  12.7729  12.8678  12.8800
    13.1164  13.1298  13.7180  13.7229

          k = 0.8000 0.4619 0.1329 (  6369 PWs)   bands (ev):

    -6.2641  -6.2630  -5.9355  -5.9343  -4.9771  -4.9765  -2.0653  -2.0502
    -0.2661  -0.2443  -0.0017   0.0128   2.4457   2.5444   3.3428   3.5699
     3.8797   3.9407   4.1733   4.2942   4.3672   4.4052   4.8584   5.0212
     5.0278   5.0602   5.2488   5.3128   5.9151   5.9471   8.0804   8.0841
     8.1538   8.2347   8.4590   8.4610   8.5823   8.5957   8.8394   8.8667
     9.4726   9.5052   9.6943   9.7337  10.4984  10.5002  10.9823  11.0318
    11.2253  11.2512  11.9776  11.9887  12.8076  12.8159  13.2690  13.2723
    13.6595  13.6873  14.4811  14.4933

          k = 0.8000 0.4619 0.2658 (  6369 PWs)   bands (ev):

    -6.2676  -6.2665  -5.9277  -5.9266  -4.9861  -4.9853  -1.9969  -1.9818
    -0.6476  -0.6314   0.3656   0.3867   2.6674   2.8083   3.2188   3.3059
     3.6707   3.8126   3.9313   3.9890   4.2164   4.2354   4.7247   4.8100
     5.2354   5.2654   5.7841   5.9176   6.5786   6.6357   7.4248   7.4288
     7.5604   7.5624   7.9165   7.9368   8.7747   8.8051   9.1518   9.1719
     9.7747   9.7785  10.5187  10.5846  10.5881  10.6035  10.7142  10.7177
    11.2690  11.2754  12.1499  12.1529  12.2579  12.2613  12.9882  12.9942
    13.7148  13.7426  13.8446  13.8725

          k = 0.8000 0.6928 0.0000 (  6361 PWs)   bands (ev):

    -6.3820  -6.3809  -5.4452  -5.4440  -5.4328  -5.4319  -1.4339  -1.4177
    -1.2172  -1.1998   0.3981   0.4136   2.5942   2.6799   3.0619   3.3087
     3.7245   3.8340   4.2043   4.2985   4.4879   4.6271   4.7946   4.8157
     4.9223   4.9551   5.8596   5.9344   5.9792   6.0402   7.5352   7.5392
     7.9463   7.9487   7.9713   8.0265   9.2266   9.3635   9.3645   9.3848
     9.6770   9.6946   9.7018   9.7775  10.1057  10.1637  11.1686  11.1853
    11.2114  11.2282  11.5671  11.5691  12.7525  12.7729  12.8678  12.8800
    13.1164  13.1298  13.7180  13.7229

          k = 0.8000 0.6928 0.1329 (  6369 PWs)   bands (ev):

    -6.2676  -6.2665  -5.9277  -5.9266  -4.9861  -4.9853  -1.9969  -1.9818
    -0.6476  -0.6314   0.3656   0.3867   2.6674   2.8083   3.2188   3.3059
     3.6707   3.8126   3.9313   3.9890   4.2164   4.2354   4.7247   4.8100
     5.2354   5.2654   5.7841   5.9176   6.5786   6.6357   7.4248   7.4288
     7.5604   7.5624   7.9165   7.9368   8.7747   8.8051   9.1518   9.1719
     9.7747   9.7785  10.5187  10.5846  10.5881  10.6035  10.7142  10.7177
    11.2690  11.2754  12.1499  12.1529  12.2579  12.2613  12.9882  12.9942
    13.7148  13.7426  13.8446  13.8725

          k = 0.8000 0.6928 0.2658 (  6369 PWs)   bands (ev):

    -6.2641  -6.2630  -5.9355  -5.9343  -4.9771  -4.9765  -2.0653  -2.0502
    -0.2661  -0.2443  -0.0017   0.0128   2.4457   2.5444   3.3428   3.5699
     3.8797   3.9407   4.1733   4.2942   4.3672   4.4052   4.8584   5.0212
     5.0278   5.0602   5.2488   5.3128   5.9151   5.9471   8.0804   8.0841
     8.1538   8.2347   8.4590   8.4610   8.5823   8.5957   8.8394   8.8667
     9.4726   9.5052   9.6943   9.7337  10.4984  10.5002  10.9823  11.0318
    11.2253  11.2512  11.9776  11.9887  12.8076  12.8159  13.2690  13.2723
    13.6595  13.6873  14.4811  14.4933

          k = 0.8000 0.9238 0.0000 (  6397 PWs)   bands (ev):

    -5.6851  -5.6836  -4.9379  -4.9376  -4.9370  -4.9368  -1.5448  -1.5446
    -1.5205  -1.5203  -1.0043  -0.9872   2.1335   2.1338   2.3796   2.3798
     2.4674   2.4677   2.7033   2.7035   2.9525   3.0414   5.0794   5.0795
     5.1671   5.1672   5.1683   5.2225   6.1704   6.2589   7.2825   7.3193
     7.6174   7.6289   8.4816   8.4817   8.5256   8.5257  10.7501  10.7502
    10.7667  10.7667  10.9580  10.9652  11.2219  11.2220  11.2746  11.2747
    11.9946  11.9946  12.0218  12.0219  12.0813  12.0907  13.3346  13.3377
    15.3396  15.3396  15.3567  15.3567

          k = 0.8000 0.9238 0.1329 (  6375 PWs)   bands (ev):

    -5.5871  -5.5856  -5.3131  -5.3118  -4.6330  -4.6323  -1.7380  -1.7077
    -1.3028  -1.2837  -1.0938  -1.0765   1.5936   1.8396   1.9618   2.1929
     2.9369   3.1141   3.2022   3.2593   3.4046   3.6753   4.3518   4.3815
     4.4993   4.5475   5.1600   5.2355   5.8736   5.9589   7.6886   7.7023
     8.2627   8.3054   8.6062   8.6345   9.2806   9.4370   9.7990   9.9043
    10.2657  10.3741  10.4961  10.5227  10.9939  11.0245  11.4649  11.4715
    11.4781  11.4987  11.9545  11.9891  12.8634  12.9081  13.5779  13.5918
    14.5102  14.5225  16.3053  16.3434

          k = 0.8000 0.9238 0.2658 (  6375 PWs)   bands (ev):

    -5.5871  -5.5856  -5.3131  -5.3118  -4.6330  -4.6323  -1.7380  -1.7077
    -1.3028  -1.2837  -1.0938  -1.0765   1.5936   1.8396   1.9618   2.1929
     2.9369   3.1141   3.2022   3.2593   3.4046   3.6753   4.3518   4.3815
     4.4993   4.5475   5.1600   5.2355   5.8736   5.9589   7.6886   7.7023
     8.2627   8.3054   8.6062   8.6345   9.2806   9.4370   9.7990   9.9043
    10.2657  10.3741  10.4961  10.5227  10.9939  11.0245  11.4649  11.4715
    11.4781  11.4987  11.9545  11.9891  12.8634  12.9081  13.5779  13.5918
    14.5102  14.5225  16.3053  16.3434

          k = 0.8000 1.1547 0.0000 (  6397 PWs)   bands (ev):

    -4.7431  -4.7429  -4.7413  -4.7411  -4.5636  -4.5620  -2.1134  -2.1131
    -2.0924  -2.0921  -1.5015  -1.4615   0.9981   1.0912   2.1349   2.1350
     2.2161   2.2162   3.0372   3.2231   3.5242   3.5243   3.5499   3.6033
     3.6033   3.6931   5.4092   5.4093   5.4902   5.4903   7.7075   7.7075
     7.7347   7.7347   9.5266   9.5267   9.5391   9.5392   9.8125   9.9823
    10.6782  10.8960  11.0897  11.1830  11.4222  11.4223  11.4508  11.4508
    13.3115  13.3117  13.3404  13.3405  13.4477  13.4542  13.8907  13.8907
    13.9106  13.9106  15.6606  15.6606

          k = 0.8000 1.1547 0.1329 (  6399 PWs)   bands (ev):

    -4.7727  -4.7713  -4.6775  -4.6756  -4.5998  -4.5980  -2.3265  -2.3089
    -1.8128  -1.7853  -1.5836  -1.5480   1.2978   1.4119   1.8346   2.0169
     2.2972   2.4058   2.4704   2.5127   2.7021   2.8474   4.0000   4.2013
     4.5651   4.6129   5.1852   5.2838   5.6574   5.7173   7.6379   7.6671
     7.7015   7.7216   8.9009   8.9474   9.0836   9.1512  10.3057  10.3744
    10.5101  10.5324  11.2122  11.2375  11.4417  11.4580  12.1287  12.1631
    12.6952  12.7037  12.8504  12.9001  13.8581  13.8890  14.1295  14.1429
    14.4197  14.4251  14.9347  14.9427

          k = 0.8000 1.1547 0.2658 (  6399 PWs)   bands (ev):

    -4.7727  -4.7713  -4.6775  -4.6756  -4.5998  -4.5980  -2.3265  -2.3089
    -1.8128  -1.7853  -1.5836  -1.5480   1.2978   1.4119   1.8346   2.0169
     2.2972   2.4058   2.4704   2.5127   2.7021   2.8474   4.0000   4.2013
     4.5651   4.6129   5.1852   5.2838   5.6574   5.7173   7.6379   7.6671
     7.7015   7.7216   8.9009   8.9474   9.0836   9.1512  10.3057  10.3744
    10.5101  10.5324  11.2122  11.2375  11.4417  11.4580  12.1287  12.1631
    12.6952  12.7037  12.8504  12.9001  13.8581  13.8890  14.1295  14.1429
    14.4197  14.4251  14.9347  14.9427

          k = 0.8000 1.3856 0.0000 (  6397 PWs)   bands (ev):

    -5.6851  -5.6836  -4.9379  -4.9376  -4.9370  -4.9368  -1.5448  -1.5446
    -1.5205  -1.5203  -1.0043  -0.9872   2.1335   2.1338   2.3796   2.3798
     2.4674   2.4677   2.7033   2.7035   2.9525   3.0414   5.0794   5.0795
     5.1671   5.1672   5.1683   5.2225   6.1704   6.2589   7.2825   7.3193
     7.6174   7.6289   8.4816   8.4817   8.5256   8.5257  10.7501  10.7502
    10.7667  10.7667  10.9580  10.9652  11.2219  11.2220  11.2746  11.2747
    11.9946  11.9946  12.0218  12.0219  12.0813  12.0907  13.3346  13.3377
    15.3396  15.3396  15.3567  15.3567

          k = 0.8000 1.3856 0.1329 (  6375 PWs)   bands (ev):

    -5.5871  -5.5856  -5.3131  -5.3118  -4.6330  -4.6323  -1.7380  -1.7077
    -1.3028  -1.2837  -1.0938  -1.0765   1.5936   1.8396   1.9618   2.1929
     2.9369   3.1141   3.2022   3.2593   3.4046   3.6753   4.3518   4.3815
     4.4993   4.5475   5.1600   5.2355   5.8736   5.9589   7.6886   7.7023
     8.2627   8.3054   8.6062   8.6345   9.2806   9.4370   9.7990   9.9043
    10.2657  10.3741  10.4961  10.5227  10.9939  11.0245  11.4649  11.4715
    11.4781  11.4987  11.9545  11.9891  12.8634  12.9081  13.5779  13.5918
    14.5102  14.5225  16.3053  16.3434

          k = 0.8000 1.3856 0.2658 (  6375 PWs)   bands (ev):

    -5.5871  -5.5856  -5.3131  -5.3118  -4.6330  -4.6323  -1.7380  -1.7077
    -1.3028  -1.2837  -1.0938  -1.0765   1.5936   1.8396   1.9618   2.1929
     2.9369   3.1141   3.2022   3.2593   3.4046   3.6753   4.3518   4.3815
     4.4993   4.5475   5.1600   5.2355   5.8736   5.9589   7.6886   7.7023
     8.2627   8.3054   8.6062   8.6345   9.2806   9.4370   9.7990   9.9043
    10.2657  10.3741  10.4961  10.5227  10.9939  11.0245  11.4649  11.4715
    11.4781  11.4987  11.9545  11.9891  12.8634  12.9081  13.5779  13.5918
    14.5102  14.5225  16.3053  16.3434

     Writing output data file GeTe.bulk.save/
 
     init_run     :      0.58s CPU      0.72s WALL (       1 calls)
     electrons    :    101.09s CPU    130.24s WALL (       1 calls)

     Called by init_run:
     wfcinit      :      0.00s CPU      0.01s WALL (       1 calls)
     wfcinit:atom :      0.05s CPU      0.08s WALL (       5 calls)
     wfcinit:wfcr :      4.08s CPU      4.13s WALL (       5 calls)
     potinit      :      0.15s CPU      0.27s WALL (       1 calls)
     hinit0       :      0.40s CPU      0.40s WALL (       1 calls)

     Called by electrons:
     c_bands      :    101.09s CPU    130.24s WALL (       1 calls)
     v_of_rho     :      0.09s CPU      0.10s WALL (       1 calls)
     v_h          :      0.00s CPU      0.01s WALL (       1 calls)
     v_xc         :      0.08s CPU      0.10s WALL (       1 calls)

     Called by c_bands:
     init_us_2    :      0.02s CPU      0.03s WALL (       5 calls)
     cegterg      :     85.29s CPU     85.94s WALL (      12 calls)

     Called by sum_band:

     Called by *egterg:
     h_psi        :     61.74s CPU     62.06s WALL (     218 calls)
     g_psi        :      0.71s CPU      0.72s WALL (     201 calls)
     cdiaghg      :      2.40s CPU      2.65s WALL (     206 calls)
     cegterg:over :      9.86s CPU      9.86s WALL (     201 calls)
     cegterg:upda :      8.79s CPU      8.87s WALL (     201 calls)
     cegterg:last :      4.38s CPU      4.38s WALL (      32 calls)

     Called by h_psi:
     h_psi:pot    :     61.25s CPU     61.39s WALL (     218 calls)
     h_psi:calbec :      2.42s CPU      2.42s WALL (     218 calls)
     vloc_psi     :     56.47s CPU     56.60s WALL (     218 calls)
     add_vuspsi   :      2.36s CPU      2.37s WALL (     218 calls)

     General routines
     calbec       :      2.42s CPU      2.42s WALL (     218 calls)
     fft          :      0.03s CPU      0.03s WALL (      14 calls)
     fftw         :     43.53s CPU     43.56s WALL (   22200 calls)
     davcio       :      0.05s CPU      1.19s WALL (      10 calls)
 
     Parallel routines
 
     PWSCF        :   1m42.07s CPU   2m20.15s WALL

 
   This run was terminated on:  15:48:13   7Oct2019            

=------------------------------------------------------------------------------=
   JOB DONE.
=------------------------------------------------------------------------------=
