
     Program PWSCF v.6.4.1 starts on  7Oct2019 at 16:12:36 

     This program is part of the open-source Quantum ESPRESSO suite
     for quantum simulation of materials; please cite
         "P. Giannozzi et al., J. Phys.:Condens. Matter 21 395502 (2009);
         "P. Giannozzi et al., J. Phys.:Condens. Matter 29 465901 (2017);
          URL http://www.quantum-espresso.org", 
     in publications or presentations arising from this work. More details at
     http://www.quantum-espresso.org/quote

     Parallel version (MPI), running on    48 processors

     MPI processes distributed on     3 nodes
     K-points division:     npool     =      16
     R & G space division:  proc/nbgrp/npool/nimage =       3
     Waiting for input...
     Reading input from standard input

     Current dimensions of program PWSCF are:
     Max number of different atomic species (ntypx) = 10
     Max number of k-points (npk) =  40000
     Max angular momentum in pseudopotentials (lmaxx) =  3

     Atomic positions and unit cell read from directory:
     temp/GeTe.slab.save/                                                                                                                                                                                                                                            
 

     Subspace diagonalization in iterative solution of the eigenvalue problem:
     a serial algorithm will be used

 
     Parallelization info
     --------------------
     sticks:   dense  smooth     PW     G-vecs:    dense   smooth      PW
     Min         282     282    100               102024   102024   21020
     Max         283     283    101               102119   102119   21055
     Sum         847     847    301               306169   306169   63099
 


     bravais-lattice index     =            4
     lattice parameter (alat)  =       7.8948  a.u.
     unit-cell volume          =    6412.8359 (a.u.)^3
     number of atoms/cell      =           30
     number of atomic types    =            2
     number of electrons       =       150.00
     number of Kohn-Sham states=          300
     kinetic-energy cutoff     =      50.0000  Ry
     charge density cutoff     =     200.0000  Ry
     Exchange-correlation= PBESOL
                           (   1   4  10   8   0   0   0)
     Non magnetic calculation with spin-orbit


     celldm(1)=   7.894800  celldm(2)=   0.000000  celldm(3)=  15.048600
     celldm(4)=   0.000000  celldm(5)=   0.000000  celldm(6)=   0.000000

     crystal axes: (cart. coord. in units of alat)
               a(1) = (   1.000000   0.000000   0.000000 )  
               a(2) = (  -0.500000   0.866025   0.000000 )  
               a(3) = (   0.000000   0.000000  15.048600 )  

     reciprocal axes: (cart. coord. in units 2 pi/alat)
               b(1) = (  1.000000  0.577350  0.000000 )  
               b(2) = (  0.000000  1.154701  0.000000 )  
               b(3) = (  0.000000  0.000000  0.066451 )  


     PseudoPot. # 1 for Ge read from file:
     ../pseudo/Ge.rel-pbesol-n-nc.UPF
     MD5 check sum: 5d120bc42c09b8e9caae97d8f4be7bef
     Pseudo is Norm-conserving + core correction, Zval =  4.0
     Generated using "atomic" code by A. Dal Corso v.5.0.99 svn rev. 10869
     Using radial grid of 1207 points,  3 beta functions with: 
                l(1) =   0
                l(2) =   1
                l(3) =   1

     PseudoPot. # 2 for Te read from file:
     ../pseudo/Te.rel-pbesol-n-nc.UPF
     MD5 check sum: 9ea082b7414589e9c5af18756b6648f4
     Pseudo is Norm-conserving + core correction, Zval =  6.0
     Generated using "atomic" code by A. Dal Corso v.5.0.99 svn rev. 10869
     Using radial grid of 1245 points,  4 beta functions with: 
                l(1) =   1
                l(2) =   1
                l(3) =   2
                l(4) =   2

     atomic species   valence    mass     pseudopotential
        Ge             4.00    72.61000     Ge( 1.00)
        Te             6.00   127.60000     Te( 1.00)

      6 Sym. Ops. (no inversion) found


                                    s                        frac. trans.

      isym =  1     identity                                     

 cryst.   s( 1) = (     1          0          0      )
                  (     0          1          0      )
                  (     0          0          1      )

 cart.    s( 1) = (  1.0000000  0.0000000  0.0000000 )
                  (  0.0000000  1.0000000  0.0000000 )
                  (  0.0000000  0.0000000  1.0000000 )


      isym =  2     120 deg rotation - cryst. axis [0,0,1]       

 cryst.   s( 2) = (     0          1          0      )
                  (    -1         -1          0      )
                  (     0          0          1      )

 cart.    s( 2) = ( -0.5000000 -0.8660254  0.0000000 )
                  (  0.8660254 -0.5000000  0.0000000 )
                  (  0.0000000  0.0000000  1.0000000 )


      isym =  3     120 deg rotation - cryst. axis [0,0,-1]      

 cryst.   s( 3) = (    -1         -1          0      )
                  (     1          0          0      )
                  (     0          0          1      )

 cart.    s( 3) = ( -0.5000000  0.8660254  0.0000000 )
                  ( -0.8660254 -0.5000000  0.0000000 )
                  (  0.0000000  0.0000000  1.0000000 )


      isym =  4     inv. 180 deg rotation - cart. axis [1,0,0]   

 cryst.   s( 4) = (    -1          0          0      )
                  (     1          1          0      )
                  (     0          0          1      )

 cart.    s( 4) = ( -1.0000000  0.0000000  0.0000000 )
                  (  0.0000000  1.0000000  0.0000000 )
                  (  0.0000000  0.0000000  1.0000000 )


      isym =  5     inv. 180 deg rotation - cryst. axis [0,1,0]  

 cryst.   s( 5) = (     1          1          0      )
                  (     0         -1          0      )
                  (     0          0          1      )

 cart.    s( 5) = (  0.5000000  0.8660254  0.0000000 )
                  (  0.8660254 -0.5000000  0.0000000 )
                  (  0.0000000  0.0000000  1.0000000 )


      isym =  6     inv. 180 deg rotation - cryst. axis [1,1,0]  

 cryst.   s( 6) = (     0         -1          0      )
                  (    -1          0          0      )
                  (     0          0          1      )

 cart.    s( 6) = (  0.5000000 -0.8660254  0.0000000 )
                  ( -0.8660254 -0.5000000  0.0000000 )
                  (  0.0000000  0.0000000  1.0000000 )


     double point group C_3v (3m)  
     there are  6 classes and  3 irreducible representations
     the character table:

       E     -E    2C3   -2C3  3s_v  -3s_v
                                          
G_4    2.00 -2.00  1.00 -1.00  0.00  0.00
G_5    1.00 -1.00 -1.00  1.00  0.00  0.00
G_6    1.00 -1.00 -1.00  1.00  0.00  0.00

     imaginary part

       E     -E    2C3   -2C3  3s_v  -3s_v
                                          
G_4    0.00  0.00  0.00  0.00  0.00  0.00
G_5    0.00  0.00  0.00  0.00  1.00 -1.00
G_6    0.00  0.00  0.00  0.00 -1.00  1.00

     the symmetry operations in each class and the name of the first element:

     E             1
          identity                                               
     -E           -1
          identity E                                             
     2C3           2    3
          120 deg rotation - cryst. axis [0,0,1]                 
     -2C3         -2   -3
          120 deg rotation - cryst. axis [0,0,1] E               
     3s_v          4   -5   -6
          inv. 180 deg rotation - cart. axis [1,0,0]             
     3s_v          5    6   -4
          inv. 180 deg rotation - cryst. axis [0,1,0]            

   Cartesian axes

     site n.     atom                  positions (alat units)
         1           Ge  tau(   1) = (   0.5000000  -0.2886751   6.0341124  )
         2           Te  tau(   2) = (  -0.5000000   0.2886751   5.6703546  )
         3           Ge  tau(   3) = (   0.0000000   0.0000000   5.1980799  )
         4           Te  tau(   4) = (   0.5000000  -0.2886751   4.8343206  )
         5           Ge  tau(   5) = (  -0.5000000   0.2886751   4.3620459  )
         6           Te  tau(   6) = (   0.0000000   0.0000000   3.9982866  )
         7           Ge  tau(   7) = (   0.5000000  -0.2886751   3.5260134  )
         8           Te  tau(   8) = (  -0.5000000   0.2886751   3.1622541  )
         9           Ge  tau(   9) = (   0.0000000   0.0000000   2.6899794  )
        10           Te  tau(  10) = (   0.5000000  -0.2886751   2.3262201  )
        11           Ge  tau(  11) = (  -0.5000000   0.2886751   1.8539469  )
        12           Te  tau(  12) = (   0.0000000   0.0000000   1.4901876  )
        13           Ge  tau(  13) = (   0.5000000  -0.2886751   1.0179129  )
        14           Te  tau(  14) = (  -0.5000000   0.2886751   0.6541536  )
        15           Ge  tau(  15) = (   0.0000000   0.0000000   0.1818789  )
        16           Te  tau(  16) = (   0.5000000  -0.2886751  -0.1818789  )
        17           Ge  tau(  17) = (  -0.5000000   0.2886751  -0.6541536  )
        18           Te  tau(  18) = (   0.0000000   0.0000000  -1.0179129  )
        19           Ge  tau(  19) = (   0.5000000  -0.2886751  -1.4901876  )
        20           Te  tau(  20) = (  -0.5000000   0.2886751  -1.8539469  )
        21           Ge  tau(  21) = (   0.0000000   0.0000000  -2.3262201  )
        22           Te  tau(  22) = (   0.5000000  -0.2886751  -2.6899794  )
        23           Ge  tau(  23) = (  -0.5000000   0.2886751  -3.1622541  )
        24           Te  tau(  24) = (   0.0000000   0.0000000  -3.5260134  )
        25           Ge  tau(  25) = (   0.5000000  -0.2886751  -3.9982866  )
        26           Te  tau(  26) = (  -0.5000000   0.2886751  -4.3620459  )
        27           Ge  tau(  27) = (   0.0000000   0.0000000  -4.8343206  )
        28           Te  tau(  28) = (   0.5000000  -0.2886751  -5.1980799  )
        29           Ge  tau(  29) = (  -0.5000000   0.2886751  -5.6703546  )
        30           Te  tau(  30) = (   0.0000000   0.0000000  -6.0341124  )

   Crystallographic axes

     site n.     atom                  positions (cryst. coord.)
         1           Ge  tau(   1) = (  0.3333333 -0.3333333  0.4009750  )
         2           Te  tau(   2) = ( -0.3333333  0.3333333  0.3768028  )
         3           Ge  tau(   3) = (  0.0000000  0.0000000  0.3454195  )
         4           Te  tau(   4) = (  0.3333333 -0.3333333  0.3212472  )
         5           Ge  tau(   5) = ( -0.3333333  0.3333333  0.2898639  )
         6           Te  tau(   6) = (  0.0000000  0.0000000  0.2656916  )
         7           Ge  tau(   7) = (  0.3333333 -0.3333333  0.2343084  )
         8           Te  tau(   8) = ( -0.3333333  0.3333333  0.2101361  )
         9           Ge  tau(   9) = (  0.0000000  0.0000000  0.1787528  )
        10           Te  tau(  10) = (  0.3333333 -0.3333333  0.1545805  )
        11           Ge  tau(  11) = ( -0.3333333  0.3333333  0.1231973  )
        12           Te  tau(  12) = (  0.0000000  0.0000000  0.0990250  )
        13           Ge  tau(  13) = (  0.3333333 -0.3333333  0.0676417  )
        14           Te  tau(  14) = ( -0.3333333  0.3333333  0.0434694  )
        15           Ge  tau(  15) = (  0.0000000  0.0000000  0.0120861  )
        16           Te  tau(  16) = (  0.3333333 -0.3333333 -0.0120861  )
        17           Ge  tau(  17) = ( -0.3333333  0.3333333 -0.0434694  )
        18           Te  tau(  18) = (  0.0000000  0.0000000 -0.0676417  )
        19           Ge  tau(  19) = (  0.3333333 -0.3333333 -0.0990250  )
        20           Te  tau(  20) = ( -0.3333333  0.3333333 -0.1231973  )
        21           Ge  tau(  21) = (  0.0000000  0.0000000 -0.1545805  )
        22           Te  tau(  22) = (  0.3333333 -0.3333333 -0.1787528  )
        23           Ge  tau(  23) = ( -0.3333333  0.3333333 -0.2101361  )
        24           Te  tau(  24) = (  0.0000000  0.0000000 -0.2343084  )
        25           Ge  tau(  25) = (  0.3333333 -0.3333333 -0.2656916  )
        26           Te  tau(  26) = ( -0.3333333  0.3333333 -0.2898639  )
        27           Ge  tau(  27) = (  0.0000000  0.0000000 -0.3212472  )
        28           Te  tau(  28) = (  0.3333333 -0.3333333 -0.3454195  )
        29           Ge  tau(  29) = ( -0.3333333  0.3333333 -0.3768028  )
        30           Te  tau(  30) = (  0.0000000  0.0000000 -0.4009750  )

     number of k points=    25  Marzari-Vanderbilt smearing, width (Ry)=  0.0200
                       cart. coord. in units 2pi/alat
        k(    1) = (   0.0000000   0.0000000   0.0000000), wk =   0.0400000
        k(    2) = (   0.0000000   0.2309401   0.0000000), wk =   0.0400000
        k(    3) = (   0.0000000   0.4618802   0.0000000), wk =   0.0400000
        k(    4) = (   0.0000000   0.6928203   0.0000000), wk =   0.0400000
        k(    5) = (   0.0000000   0.9237604   0.0000000), wk =   0.0400000
        k(    6) = (   0.2000000   0.1154701   0.0000000), wk =   0.0400000
        k(    7) = (   0.2000000   0.3464102   0.0000000), wk =   0.0400000
        k(    8) = (   0.2000000   0.5773503   0.0000000), wk =   0.0400000
        k(    9) = (   0.2000000   0.8082904   0.0000000), wk =   0.0400000
        k(   10) = (   0.2000000   1.0392305   0.0000000), wk =   0.0400000
        k(   11) = (   0.4000000   0.2309401   0.0000000), wk =   0.0400000
        k(   12) = (   0.4000000   0.4618802   0.0000000), wk =   0.0400000
        k(   13) = (   0.4000000   0.6928203   0.0000000), wk =   0.0400000
        k(   14) = (   0.4000000   0.9237604   0.0000000), wk =   0.0400000
        k(   15) = (   0.4000000   1.1547005   0.0000000), wk =   0.0400000
        k(   16) = (   0.6000000   0.3464102   0.0000000), wk =   0.0400000
        k(   17) = (   0.6000000   0.5773503   0.0000000), wk =   0.0400000
        k(   18) = (   0.6000000   0.8082904   0.0000000), wk =   0.0400000
        k(   19) = (   0.6000000   1.0392305   0.0000000), wk =   0.0400000
        k(   20) = (   0.6000000   1.2701706   0.0000000), wk =   0.0400000
        k(   21) = (   0.8000000   0.4618802   0.0000000), wk =   0.0400000
        k(   22) = (   0.8000000   0.6928203   0.0000000), wk =   0.0400000
        k(   23) = (   0.8000000   0.9237604   0.0000000), wk =   0.0400000
        k(   24) = (   0.8000000   1.1547005   0.0000000), wk =   0.0400000
        k(   25) = (   0.8000000   1.3856406   0.0000000), wk =   0.0400000

                       cryst. coord.
        k(    1) = (   0.0000000   0.0000000   0.0000000), wk =   0.0400000
        k(    2) = (   0.0000000   0.2000000   0.0000000), wk =   0.0400000
        k(    3) = (   0.0000000   0.4000000   0.0000000), wk =   0.0400000
        k(    4) = (   0.0000000   0.6000000   0.0000000), wk =   0.0400000
        k(    5) = (   0.0000000   0.8000000   0.0000000), wk =   0.0400000
        k(    6) = (   0.2000000   0.0000000   0.0000000), wk =   0.0400000
        k(    7) = (   0.2000000   0.2000000   0.0000000), wk =   0.0400000
        k(    8) = (   0.2000000   0.4000000   0.0000000), wk =   0.0400000
        k(    9) = (   0.2000000   0.6000000   0.0000000), wk =   0.0400000
        k(   10) = (   0.2000000   0.8000000   0.0000000), wk =   0.0400000
        k(   11) = (   0.4000000   0.0000000   0.0000000), wk =   0.0400000
        k(   12) = (   0.4000000   0.2000000   0.0000000), wk =   0.0400000
        k(   13) = (   0.4000000   0.4000000   0.0000000), wk =   0.0400000
        k(   14) = (   0.4000000   0.6000000   0.0000000), wk =   0.0400000
        k(   15) = (   0.4000000   0.8000000   0.0000000), wk =   0.0400000
        k(   16) = (   0.6000000   0.0000000   0.0000000), wk =   0.0400000
        k(   17) = (   0.6000000   0.2000000   0.0000000), wk =   0.0400000
        k(   18) = (   0.6000000   0.4000000   0.0000000), wk =   0.0400000
        k(   19) = (   0.6000000   0.6000000   0.0000000), wk =   0.0400000
        k(   20) = (   0.6000000   0.8000000   0.0000000), wk =   0.0400000
        k(   21) = (   0.8000000   0.0000000   0.0000000), wk =   0.0400000
        k(   22) = (   0.8000000   0.2000000   0.0000000), wk =   0.0400000
        k(   23) = (   0.8000000   0.4000000   0.0000000), wk =   0.0400000
        k(   24) = (   0.8000000   0.6000000   0.0000000), wk =   0.0400000
        k(   25) = (   0.8000000   0.8000000   0.0000000), wk =   0.0400000

     Dense  grid:   306169 G-vectors     FFT dimensions: (  36,  36, 540)

     Dynamical RAM for                 wfc:     116.84 MB

     Dynamical RAM for     wfc (w. buffer):     116.84 MB

     Dynamical RAM for           str. fact:       3.11 MB

     Dynamical RAM for           local pot:       0.00 MB

     Dynamical RAM for          nlocal pot:      67.18 MB

     Dynamical RAM for                qrad:       1.36 MB

     Dynamical RAM for          rho,v,vnew:      40.04 MB

     Dynamical RAM for           G-vectors:       6.62 MB

     Dynamical RAM for          h,s,v(r/c):      65.92 MB

     Dynamical RAM for          <psi|beta>:       3.16 MB

     Dynamical RAM for                 psi:     467.36 MB

     Dynamical RAM for                hpsi:     467.36 MB

     Dynamical RAM for      wfcinit/wfcrot:     177.32 MB

     Estimated static dynamical RAM per process >     254.06 MB

     Estimated max dynamical RAM per process >       1.23 GB

     Estimated total dynamical RAM >      58.96 GB

     Check: negative core charge=   -0.000005

     The potential is recalculated from file :
     temp/GeTe.slab.save/charge-density

     Starting wfcs are  240 randomized atomic wfcs +   60 random wfcs

     Band Structure Calculation
     Davidson diagonalization with overlap

     Computing kpt #:     1  of     2 on this pool
     total cpu time spent up to now is     1966.1 secs

     Computing kpt #:     2  of     2 on this pool
     total cpu time spent up to now is     2674.6 secs

     ethr =  6.67E-12,  avg # of iterations = 80.4

     total cpu time spent up to now is     2952.0 secs

     End of band structure calculation

          k = 0.0000 0.0000 0.0000 ( 38253 PWs)   bands (ev):

    -8.8869  -8.8869  -8.6811  -8.6811  -8.5491  -8.5491  -8.4460  -8.4460
    -8.3447  -8.3447  -8.2317  -8.2317  -8.1045  -8.1045  -7.9644  -7.9644
    -7.8131  -7.8131  -7.6538  -7.6538  -7.4901  -7.4901  -7.3248  -7.3248
    -7.1568  -7.1568  -6.9781  -6.9781  -6.5782  -6.5782  -4.4031  -4.4031
    -4.1334  -4.1334  -3.9057  -3.9057  -3.6343  -3.6343  -3.3229  -3.3229
    -2.9829  -2.9829  -2.6234  -2.6234  -2.2519  -2.2519  -1.8753  -1.8753
    -1.5016  -1.5016  -1.1411  -1.1411  -0.8057  -0.8057  -0.5054  -0.5054
    -0.2370  -0.2370   0.0271   0.0271   2.1239   2.1239   2.2824   2.2824
     2.3856   2.3856   2.4680   2.4680   2.5368   2.5368   2.5975   2.5975
     2.6542   2.6542   2.7088   2.7088   2.7629   2.7629   2.8055   2.8055
     2.8184   2.8184   2.8769   2.8769   2.9370   2.9370   2.9413   2.9413
     2.9674   2.9674   3.0173   3.0173   3.0363   3.0363   3.1177   3.1177
     3.1400   3.1400   3.1855   3.1855   3.2018   3.2018   3.2438   3.2438
     3.2953   3.2953   3.3428   3.3428   3.3502   3.3502   3.3893   3.3893
     3.4386   3.4386   3.4789   3.4789   3.4946   3.4946   3.5600   3.5600
     3.5827   3.5827   3.6388   3.6388   3.6689   3.6689   3.7669   3.7669
     3.7803   3.7803   3.8947   3.8947   4.0027   4.0027   4.1042   4.1042
     4.2014   4.2014   4.2968   4.2968   4.3561   4.3561   4.3936   4.3936
     4.4959   4.4959   4.5155   4.5155   4.6184   4.6184   4.9535   4.9535
     4.9703   4.9703   5.1254   5.1254   5.1859   5.1859   5.3368   5.3368
     5.3565   5.3565   5.4887   5.4887   5.5208   5.5208   5.5727   5.5727
     5.6733   5.6733   5.6980   5.6980   5.7822   5.7822   5.8737   5.8737
     5.9049   5.9049   5.9472   5.9472   6.0786   6.0786   6.1383   6.1383
     6.1384   6.1384   6.2853   6.2853   6.3647   6.3647   6.3929   6.3929
     6.5034   6.5034   6.6058   6.6058   6.6644   6.6644   6.7340   6.7340
     6.8472   6.8472   6.9476   6.9476   6.9734   6.9734   7.0778   7.0778
     7.2147   7.2147   7.2360   7.2360   7.2909   7.2909   7.4453   7.4453
     7.4934   7.4934   7.5201   7.5201   7.6501   7.6501   7.7035   7.7035
     7.7899   7.7899   7.8750   7.8750   7.9148   7.9148   8.0398   8.0398
     8.1174   8.1174   8.1974   8.1974   8.2759   8.2759   8.3490   8.3490
     8.5294   8.5294   8.9649   8.9649   9.8401   9.8401  10.0217  10.0217
    10.0839  10.0839  10.0865  10.0865  10.1325  10.1325  10.2322  10.2322
    10.2849  10.2849  10.2971  10.2971  10.3284  10.3284  10.4073  10.4073
    10.4473  10.4473  10.4526  10.4526  10.4937  10.4937  10.5948  10.5948
    10.6069  10.6069  10.6180  10.6180  10.8063  10.8063  10.8105  10.8105
    10.8815  10.8815  11.0484  11.0484  11.0499  11.0499  11.0509  11.0509
    11.3289  11.3289  11.3310  11.3310  11.4713  11.4713  11.6473  11.6473
    11.6519  11.6519  11.6611  11.6611

          k = 0.0000 0.2309 0.0000 ( 38217 PWs)   bands (ev):

    -8.5192  -8.5181  -8.3146  -8.3135  -8.1833  -8.1822  -8.0820  -8.0809
    -7.9850  -7.9839  -7.8785  -7.8773  -7.7594  -7.7583  -7.6292  -7.6280
    -7.4899  -7.4887  -7.3444  -7.3433  -7.1956  -7.1945  -7.0448  -7.0437
    -6.8901  -6.8892  -6.7236  -6.7228  -6.3103  -6.3082  -4.1452  -4.1288
    -3.8938  -3.8777  -3.7052  -3.6886  -3.4952  -3.4778  -3.2610  -3.2426
    -3.0143  -2.9951  -2.7663  -2.7464  -2.5260  -2.5058  -2.3006  -2.2809
    -2.0949  -2.0766  -1.9104  -1.8941  -1.7415  -1.7266  -1.5795  -1.5650
    -1.4163  -1.4020  -1.1947  -1.1851   0.3676   0.4727   0.5836   0.6928
     0.7226   0.8363   0.8456   0.9706   0.9778   1.1174   1.1230   1.2561
     1.2913   1.3936   1.4461   1.5327   1.5472   1.6428   1.6744   1.7278
     1.7320   1.8116   1.8438   1.8851   1.9197   1.9469   2.0142   2.0250
     2.0532   2.0788   2.1452   2.1489   2.2106   2.2369   2.2541   2.2660
     2.3669   2.3850   2.4131   2.4225   2.4672   2.4926   2.5434   2.5830
     2.6205   2.6341   2.6673   2.7156   2.7314   2.7835   2.8127   2.8199
     2.8711   2.9231   2.9535   2.9642   3.0129   3.0650   3.0885   3.0980
     3.1129   3.2041   3.2238   3.2314   3.2599   3.3391   3.3643   3.3723
     3.4407   3.4747   3.4753   3.5653   3.6696   3.7641   3.7962   3.8350
     3.8824   3.9105   3.9514   4.0455   4.0960   4.1813   4.2336   4.3133
     4.3958   4.4820   4.6164   4.6971   4.9648   5.0068   5.0182   5.0809
     5.4437   5.4489   5.5988   5.6128   5.6881   5.6921   5.7618   5.7628
     5.8625   5.8637   5.9152   5.9303   6.0444   6.0548   6.0925   6.0979
     6.1493   6.1692   6.2978   6.3002   6.3405   6.3715   6.4012   6.4251
     6.5557   6.5568   6.5728   6.6356   6.6921   6.7082   6.8004   6.8054
     6.8739   6.8882   6.9967   7.0054   7.0536   7.0882   7.1218   7.1552
     7.2132   7.2579   7.2727   7.3067   7.3820   7.4220   7.4770   7.4830
     7.5186   7.5442   7.6455   7.6592   7.7203   7.7429   7.7696   7.7720
     7.8678   7.8685   7.9472   7.9621   7.9963   8.0150   8.0849   8.0934
     8.1864   8.2235   8.2613   8.2628   8.3452   8.4022   8.4820   8.4870
     8.5240   8.5583   8.6244   8.6639   8.7057   8.7065   8.7520   8.7849
     8.9029   8.9428   8.9512   8.9519   9.0229   9.0427   9.0859   9.1160
     9.2154   9.2358   9.2515   9.2743   9.3565   9.3719   9.3987   9.4187
     9.4851   9.5034   9.5641   9.5814   9.6629   9.6695   9.7635   9.7712
     9.9520   9.9574  10.0968  10.0969  10.1975  10.2057  10.3569  10.3663
    10.5098  10.5114  10.6708  10.6721  10.7643  10.7724  10.8042  10.8139
    10.9555  10.9614  10.9893  10.9982  11.0843  11.0944  11.1415  11.1486
    11.1545  11.1640  11.2993  11.3093  11.4044  11.4220  11.4888  11.4977
    11.5321  11.5440  11.7132  11.7230  11.7515  11.7657  11.9220  11.9441
    11.9736  11.9908  12.1664  12.1771

          k = 0.0000 0.4619 0.0000 ( 38306 PWs)   bands (ev):

    -7.5766  -7.5751  -7.3834  -7.3820  -7.2589  -7.2576  -7.1671  -7.1659
    -7.0907  -7.0896  -7.0184  -7.0174  -6.9441  -6.9433  -6.8663  -6.8657
    -6.7853  -6.7849  -6.7008  -6.7007  -6.6131  -6.6130  -6.5212  -6.5209
    -6.4222  -6.4217  -6.2969  -6.2963  -5.7825  -5.7821  -4.3647  -4.3553
    -4.1657  -4.1560  -4.0355  -4.0257  -3.9273  -3.9170  -3.8156  -3.8043
    -3.6923  -3.6797  -3.5592  -3.5451  -3.4211  -3.4054  -3.2839  -3.2672
    -3.1514  -3.1349  -3.0209  -3.0055  -2.8878  -2.8727  -2.7506  -2.7356
    -2.6047  -2.5900  -2.3681  -2.3588  -1.0621  -0.9646  -0.8265  -0.7308
    -0.6533  -0.5595  -0.4579  -0.3669  -0.2271  -0.1396   0.0352   0.1182
     0.3245   0.4012   0.6359   0.6956   0.7628   0.8169   0.9545   0.9648
     1.0181   1.0284   1.1010   1.1487   1.1788   1.1919   1.2198   1.2696
     1.3089   1.3435   1.3682   1.3944   1.4041   1.4147   1.5153   1.5389
     1.5434   1.5566   1.6296   1.6563   1.6871   1.6988   1.7056   1.7262
     1.8531   1.8719   1.8917   1.8962   1.9523   1.9534   2.0534   2.0733
     2.1190   2.1200   2.2211   2.2344   2.2834   2.3006   2.3392   2.3423
     2.4939   2.5059   2.5457   2.5516   2.5693   2.5915   2.7329   2.7637
     2.7929   2.8045   2.9027   2.9152   3.0248   3.0378   3.0926   3.1047
     3.2429   3.2572   3.3388   3.3942   3.5213   3.5539   3.6756   3.7088
     3.9459   4.0008   4.2523   4.3085   4.6231   4.6868   4.7832   4.8021
     5.2427   5.3003   5.3342   5.3354   5.3848   5.3960   5.6266   5.6280
     5.6527   5.6952   5.7543   5.7974   5.9152   5.9212   6.0398   6.0531
     6.1656   6.1868   6.2680   6.2721   6.4129   6.4333   6.6011   6.6042
     6.6627   6.7002   6.7892   6.8290   6.8791   6.8801   7.0061   7.0120
     7.0754   7.0953   7.1322   7.1483   7.2414   7.2696   7.2910   7.2932
     7.3956   7.4019   7.4586   7.4645   7.5389   7.5505   7.6673   7.6693
     7.7557   7.7867   7.8013   7.8611   7.8870   7.9052   8.1044   8.1045
     8.1935   8.2003   8.3365   8.3374   8.5213   8.5229   8.7652   8.7948
     8.8955   8.9124   9.0162   9.0299   9.1494   9.1609   9.3603   9.3693
     9.4016   9.4116   9.4624   9.4765   9.5865   9.5891   9.6751   9.6894
     9.7413   9.7546   9.7935   9.8048   9.8880   9.8908   9.9262   9.9469
    10.0546  10.0726  10.1195  10.1432  10.2609  10.2730  10.2856  10.2910
    10.3873  10.4225  10.5253  10.5436  10.6209  10.6542  10.8602  10.8892
    11.0190  11.0342  11.1665  11.1692  11.2719  11.2986  11.5162  11.5318
    11.7022  11.7121  11.7843  11.7920  11.9523  11.9572  12.0740  12.1003
    12.2618  12.2814  12.3817  12.3885  12.4810  12.5106  12.5883  12.6175
    12.7107  12.7492  12.9036  12.9201  13.0365  13.0542  13.1931  13.2193
    13.2495  13.2565  13.3235  13.3262  13.3802  13.3837  13.4664  13.4726
    13.5172  13.5210  13.6092  13.6146

          k = 0.0000 0.6928 0.0000 ( 38306 PWs)   bands (ev):

    -7.5766  -7.5751  -7.3834  -7.3820  -7.2589  -7.2576  -7.1671  -7.1659
    -7.0907  -7.0896  -7.0184  -7.0174  -6.9441  -6.9433  -6.8663  -6.8657
    -6.7853  -6.7849  -6.7008  -6.7007  -6.6131  -6.6130  -6.5212  -6.5209
    -6.4222  -6.4217  -6.2969  -6.2963  -5.7825  -5.7821  -4.3647  -4.3553
    -4.1657  -4.1560  -4.0355  -4.0257  -3.9273  -3.9170  -3.8156  -3.8043
    -3.6923  -3.6797  -3.5592  -3.5451  -3.4211  -3.4054  -3.2839  -3.2672
    -3.1514  -3.1349  -3.0209  -3.0055  -2.8878  -2.8727  -2.7506  -2.7356
    -2.6047  -2.5900  -2.3681  -2.3588  -1.0621  -0.9646  -0.8265  -0.7308
    -0.6533  -0.5595  -0.4579  -0.3669  -0.2271  -0.1396   0.0352   0.1182
     0.3245   0.4012   0.6359   0.6956   0.7628   0.8169   0.9545   0.9648
     1.0181   1.0284   1.1010   1.1487   1.1788   1.1919   1.2198   1.2696
     1.3089   1.3435   1.3682   1.3944   1.4041   1.4147   1.5153   1.5389
     1.5434   1.5566   1.6296   1.6563   1.6871   1.6988   1.7056   1.7262
     1.8531   1.8719   1.8917   1.8962   1.9523   1.9534   2.0534   2.0733
     2.1190   2.1200   2.2211   2.2344   2.2834   2.3006   2.3392   2.3423
     2.4939   2.5059   2.5457   2.5516   2.5693   2.5915   2.7329   2.7637
     2.7929   2.8045   2.9027   2.9152   3.0248   3.0378   3.0926   3.1047
     3.2429   3.2572   3.3388   3.3942   3.5213   3.5539   3.6756   3.7088
     3.9459   4.0008   4.2523   4.3085   4.6231   4.6868   4.7832   4.8021
     5.2427   5.3003   5.3342   5.3354   5.3848   5.3960   5.6266   5.6280
     5.6527   5.6952   5.7543   5.7974   5.9152   5.9212   6.0398   6.0531
     6.1656   6.1868   6.2680   6.2721   6.4129   6.4333   6.6011   6.6042
     6.6627   6.7002   6.7892   6.8290   6.8791   6.8801   7.0061   7.0120
     7.0754   7.0953   7.1322   7.1483   7.2414   7.2696   7.2910   7.2932
     7.3956   7.4019   7.4586   7.4645   7.5389   7.5505   7.6673   7.6693
     7.7557   7.7867   7.8013   7.8611   7.8870   7.9052   8.1044   8.1045
     8.1935   8.2003   8.3365   8.3374   8.5213   8.5229   8.7652   8.7948
     8.8955   8.9124   9.0162   9.0299   9.1494   9.1609   9.3603   9.3693
     9.4016   9.4116   9.4624   9.4765   9.5865   9.5891   9.6751   9.6894
     9.7413   9.7546   9.7935   9.8048   9.8880   9.8908   9.9262   9.9469
    10.0546  10.0726  10.1195  10.1432  10.2609  10.2730  10.2856  10.2910
    10.3873  10.4225  10.5253  10.5436  10.6209  10.6542  10.8602  10.8892
    11.0190  11.0342  11.1665  11.1692  11.2719  11.2986  11.5162  11.5318
    11.7022  11.7121  11.7843  11.7920  11.9523  11.9572  12.0740  12.1003
    12.2618  12.2814  12.3817  12.3885  12.4810  12.5106  12.5883  12.6175
    12.7107  12.7492  12.9036  12.9201  13.0365  13.0542  13.1931  13.2193
    13.2495  13.2565  13.3235  13.3262  13.3802  13.3837  13.4664  13.4726
    13.5172  13.5210  13.6092  13.6146

          k = 0.0000 0.9238 0.0000 ( 38217 PWs)   bands (ev):

    -8.5192  -8.5181  -8.3146  -8.3135  -8.1833  -8.1822  -8.0820  -8.0809
    -7.9850  -7.9839  -7.8785  -7.8773  -7.7594  -7.7583  -7.6292  -7.6280
    -7.4899  -7.4887  -7.3444  -7.3433  -7.1956  -7.1945  -7.0448  -7.0437
    -6.8901  -6.8892  -6.7236  -6.7228  -6.3103  -6.3082  -4.1452  -4.1288
    -3.8938  -3.8777  -3.7052  -3.6886  -3.4952  -3.4778  -3.2610  -3.2426
    -3.0143  -2.9951  -2.7663  -2.7464  -2.5260  -2.5058  -2.3006  -2.2809
    -2.0949  -2.0766  -1.9104  -1.8941  -1.7415  -1.7266  -1.5795  -1.5650
    -1.4163  -1.4020  -1.1947  -1.1851   0.3676   0.4727   0.5836   0.6928
     0.7226   0.8363   0.8456   0.9706   0.9778   1.1174   1.1230   1.2561
     1.2913   1.3936   1.4461   1.5327   1.5472   1.6428   1.6744   1.7278
     1.7320   1.8116   1.8438   1.8851   1.9197   1.9469   2.0142   2.0250
     2.0532   2.0788   2.1452   2.1489   2.2106   2.2369   2.2541   2.2660
     2.3669   2.3850   2.4131   2.4225   2.4672   2.4926   2.5434   2.5830
     2.6205   2.6341   2.6673   2.7156   2.7314   2.7835   2.8127   2.8199
     2.8711   2.9231   2.9535   2.9642   3.0129   3.0650   3.0885   3.0980
     3.1129   3.2041   3.2238   3.2314   3.2599   3.3391   3.3643   3.3723
     3.4407   3.4747   3.4753   3.5653   3.6696   3.7641   3.7962   3.8350
     3.8824   3.9105   3.9514   4.0455   4.0960   4.1813   4.2336   4.3133
     4.3958   4.4820   4.6164   4.6971   4.9648   5.0068   5.0182   5.0809
     5.4437   5.4489   5.5988   5.6128   5.6881   5.6921   5.7618   5.7628
     5.8625   5.8637   5.9152   5.9303   6.0444   6.0548   6.0925   6.0979
     6.1493   6.1692   6.2978   6.3002   6.3405   6.3715   6.4012   6.4251
     6.5557   6.5568   6.5728   6.6356   6.6921   6.7082   6.8004   6.8054
     6.8739   6.8882   6.9967   7.0054   7.0536   7.0882   7.1218   7.1552
     7.2132   7.2579   7.2727   7.3067   7.3820   7.4220   7.4770   7.4830
     7.5186   7.5442   7.6455   7.6592   7.7203   7.7429   7.7696   7.7720
     7.8678   7.8685   7.9472   7.9621   7.9963   8.0150   8.0849   8.0934
     8.1864   8.2235   8.2613   8.2628   8.3452   8.4022   8.4820   8.4870
     8.5240   8.5583   8.6244   8.6639   8.7057   8.7065   8.7520   8.7849
     8.9029   8.9428   8.9512   8.9519   9.0229   9.0427   9.0859   9.1160
     9.2154   9.2358   9.2515   9.2743   9.3565   9.3719   9.3987   9.4187
     9.4851   9.5034   9.5641   9.5814   9.6629   9.6695   9.7635   9.7712
     9.9520   9.9574  10.0968  10.0969  10.1975  10.2057  10.3569  10.3663
    10.5098  10.5114  10.6708  10.6721  10.7643  10.7724  10.8042  10.8139
    10.9555  10.9614  10.9893  10.9982  11.0843  11.0944  11.1415  11.1486
    11.1545  11.1640  11.2993  11.3093  11.4044  11.4220  11.4888  11.4977
    11.5321  11.5440  11.7132  11.7230  11.7515  11.7657  11.9220  11.9441
    11.9736  11.9908  12.1664  12.1771

          k = 0.2000 0.1155 0.0000 ( 38217 PWs)   bands (ev):

    -8.5192  -8.5181  -8.3146  -8.3135  -8.1833  -8.1822  -8.0820  -8.0809
    -7.9850  -7.9839  -7.8785  -7.8773  -7.7594  -7.7583  -7.6292  -7.6280
    -7.4899  -7.4887  -7.3444  -7.3433  -7.1956  -7.1945  -7.0448  -7.0437
    -6.8901  -6.8892  -6.7236  -6.7228  -6.3103  -6.3082  -4.1452  -4.1288
    -3.8938  -3.8777  -3.7052  -3.6886  -3.4952  -3.4778  -3.2610  -3.2426
    -3.0143  -2.9951  -2.7663  -2.7464  -2.5260  -2.5058  -2.3006  -2.2809
    -2.0949  -2.0766  -1.9104  -1.8941  -1.7415  -1.7266  -1.5795  -1.5650
    -1.4163  -1.4020  -1.1947  -1.1851   0.3676   0.4727   0.5836   0.6928
     0.7226   0.8363   0.8456   0.9706   0.9778   1.1174   1.1230   1.2561
     1.2913   1.3936   1.4461   1.5327   1.5472   1.6428   1.6744   1.7278
     1.7320   1.8116   1.8438   1.8851   1.9197   1.9469   2.0142   2.0250
     2.0532   2.0788   2.1452   2.1489   2.2106   2.2369   2.2541   2.2660
     2.3669   2.3850   2.4131   2.4225   2.4672   2.4926   2.5434   2.5830
     2.6205   2.6341   2.6673   2.7156   2.7314   2.7835   2.8127   2.8199
     2.8711   2.9231   2.9535   2.9642   3.0129   3.0650   3.0885   3.0980
     3.1129   3.2041   3.2238   3.2314   3.2599   3.3391   3.3643   3.3723
     3.4407   3.4747   3.4753   3.5653   3.6696   3.7641   3.7962   3.8350
     3.8824   3.9105   3.9514   4.0455   4.0960   4.1813   4.2336   4.3133
     4.3958   4.4820   4.6164   4.6971   4.9648   5.0068   5.0182   5.0809
     5.4437   5.4489   5.5988   5.6128   5.6881   5.6921   5.7618   5.7628
     5.8625   5.8637   5.9152   5.9303   6.0444   6.0548   6.0925   6.0979
     6.1493   6.1692   6.2978   6.3002   6.3405   6.3715   6.4012   6.4251
     6.5557   6.5568   6.5728   6.6356   6.6921   6.7082   6.8004   6.8054
     6.8739   6.8882   6.9967   7.0054   7.0536   7.0882   7.1218   7.1552
     7.2132   7.2579   7.2727   7.3067   7.3820   7.4220   7.4770   7.4830
     7.5186   7.5442   7.6455   7.6592   7.7203   7.7429   7.7696   7.7720
     7.8678   7.8685   7.9472   7.9621   7.9963   8.0150   8.0849   8.0934
     8.1864   8.2235   8.2613   8.2628   8.3452   8.4022   8.4820   8.4870
     8.5240   8.5583   8.6244   8.6639   8.7057   8.7065   8.7520   8.7849
     8.9029   8.9428   8.9512   8.9519   9.0229   9.0427   9.0859   9.1160
     9.2154   9.2358   9.2515   9.2743   9.3565   9.3719   9.3987   9.4187
     9.4851   9.5034   9.5641   9.5814   9.6629   9.6695   9.7635   9.7712
     9.9520   9.9574  10.0968  10.0969  10.1975  10.2057  10.3569  10.3663
    10.5098  10.5114  10.6708  10.6721  10.7643  10.7724  10.8042  10.8139
    10.9555  10.9614  10.9893  10.9982  11.0843  11.0944  11.1415  11.1486
    11.1545  11.1640  11.2993  11.3093  11.4044  11.4220  11.4888  11.4977
    11.5321  11.5440  11.7132  11.7230  11.7515  11.7657  11.9220  11.9441
    11.9736  11.9908  12.1664  12.1771

          k = 0.2000 0.3464 0.0000 ( 38305 PWs)   bands (ev):

    -7.8484  -7.8468  -7.6483  -7.6468  -7.5196  -7.5181  -7.4233  -7.4219
    -7.3380  -7.3366  -7.2501  -7.2488  -7.1549  -7.1537  -7.0533  -7.0521
    -6.9471  -6.9462  -6.8379  -6.8370  -6.7254  -6.7247  -6.6089  -6.6083
    -6.4867  -6.4861  -6.3477  -6.3471  -5.8846  -5.8830  -3.8669  -3.8345
    -3.6932  -3.6627  -3.5814  -3.5517  -3.4972  -3.4677  -3.4265  -3.3971
    -3.3632  -3.3359  -3.3002  -3.2773  -3.2315  -3.2114  -3.1578  -3.1389
    -3.0806  -3.0626  -3.0006  -2.9831  -2.9172  -2.9002  -2.8269  -2.8104
    -2.7144  -2.6988  -2.4319  -2.4224  -0.5057  -0.2756  -0.2550  -0.1468
    -0.1168  -0.0239   0.0476   0.0757   0.0977   0.1386   0.2281   0.2448
     0.3087   0.3208   0.3849   0.4531   0.4796   0.5077   0.5717   0.6348
     0.6804   0.7309   0.7796   0.8355   0.8491   0.9325   0.9530   0.9880
     1.0203   1.0661   1.1014   1.1636   1.1737   1.2166   1.2555   1.2885
     1.3204   1.3508   1.4073   1.4089   1.4961   1.5116   1.5764   1.6514
     1.7013   1.8087   1.8945   2.0127   2.0571   2.1308   2.2650   2.2979
     2.3464   2.4126   2.4558   2.5610   2.5861   2.6255   2.6420   2.7622
     2.7901   2.8574   2.8859   2.8959   2.9412   3.0319   3.0978   3.1473
     3.1676   3.1930   3.2539   3.3208   3.3838   3.4513   3.5022   3.5439
     3.5940   3.6440   3.6946   3.7565   3.8485   3.9287   3.9792   4.0414
     4.1096   4.1954   4.2874   4.3536   4.5280   4.6500   5.1321   5.1630
     5.4540   5.4736   5.5957   5.6070   5.7852   5.7892   5.8469   5.8567
     5.9065   5.9272   6.0218   6.0281   6.1675   6.1766   6.2555   6.2760
     6.3030   6.3146   6.4794   6.5068   6.5611   6.5693   6.6926   6.7272
     6.7779   6.8182   6.8937   6.9298   7.0188   7.0852   7.1162   7.1751
     7.2164   7.3091   7.3404   7.3978   7.4749   7.5354   7.6158   7.7284
     7.8188   7.8912   7.9736   8.0500   8.0853   8.1434   8.2000   8.2316
     8.3323   8.3345   8.4502   8.4597   8.5234   8.5533   8.5861   8.6418
     8.6867   8.6920   8.7817   8.7941   8.8516   8.8634   8.8912   8.9339
     8.9805   8.9980   9.0210   9.0435   9.0661   9.0811   9.1281   9.1353
     9.1762   9.1792   9.2227   9.2452   9.2861   9.2972   9.3462   9.3657
     9.3867   9.3911   9.4161   9.4259   9.5019   9.5159   9.5681   9.5893
     9.6308   9.6589   9.6645   9.6889   9.7087   9.7200   9.7987   9.8147
     9.8544   9.8626   9.9287   9.9360   9.9656   9.9894  10.0423  10.0840
    10.1005  10.1641  10.1922  10.2221  10.2568  10.2677  10.3891  10.4366
    10.4706  10.4784  10.6276  10.6875  10.7893  10.8280  10.9460  10.9802
    11.1205  11.1323  11.2747  11.2786  11.5258  11.5268  11.5905  11.6211
    11.6460  11.6561  11.9429  11.9509  12.0401  12.0527  12.3654  12.3762
    12.3856  12.3940  12.6436  12.6526  12.8318  12.8507  12.9718  13.0029
    13.2840  13.2930  13.3600  13.3793

          k = 0.2000 0.5774 0.0000 ( 38377 PWs)   bands (ev):

    -7.1052  -7.1037  -6.9459  -6.9446  -6.8391  -6.8377  -6.7551  -6.7537
    -6.6852  -6.6838  -6.6258  -6.6244  -6.5743  -6.5729  -6.5282  -6.5268
    -6.4847  -6.4833  -6.4411  -6.4397  -6.3939  -6.3925  -6.3393  -6.3379
    -6.2688  -6.2673  -6.1378  -6.1363  -5.5511  -5.5488  -4.4552  -4.4364
    -4.2702  -4.2507  -4.1497  -4.1296  -4.0556  -4.0346  -3.9690  -3.9465
    -3.8829  -3.8577  -3.8014  -3.7708  -3.7380  -3.7005  -3.6740  -3.6427
    -3.5939  -3.5646  -3.5092  -3.4789  -3.4225  -3.3908  -3.3309  -3.2980
    -3.2209  -3.1878  -2.9733  -2.9462  -1.0202  -0.9179  -0.7894  -0.6858
    -0.6290  -0.5202  -0.4625  -0.3421  -0.2852  -0.1770  -0.1064  -0.0618
    -0.0299   0.0106   0.0621   0.1512   0.1895   0.2061   0.2337   0.2846
     0.3214   0.3751   0.3830   0.4099   0.4435   0.4925   0.5250   0.5351
     0.5983   0.6309   0.6583   0.7170   0.7388   0.7810   0.8300   0.8414
     0.8965   0.9381   0.9700   1.0396   1.0774   1.1593   1.1914   1.2259
     1.2558   1.3464   1.4838   1.5065   1.5688   1.6384   1.7726   1.8113
     1.8984   1.9181   1.9643   2.0773   2.1047   2.1493   2.1880   2.2904
     2.3124   2.4100   2.4596   2.5261   2.6581   2.6991   2.7376   2.8090
     2.9053   2.9576   3.0447   3.0922   3.1620   3.2194   3.3129   3.3703
     3.4183   3.4440   3.5140   3.5478   3.6538   3.7048   3.7625   3.7737
     3.8588   3.8818   4.0428   4.0990   4.1974   4.2908   5.1906   5.2037
     5.4245   5.4424   5.5150   5.5210   5.7151   5.7185   5.8092   5.8292
     5.8525   5.8592   6.0642   6.0779   6.1249   6.1550   6.1740   6.2355
     6.3670   6.4677   6.4830   6.5272   6.7475   6.8015   6.8896   6.9016
     6.9258   6.9528   7.1441   7.2002   7.2563   7.2994   7.3047   7.3416
     7.5331   7.6588   7.7021   7.7447   7.8077   7.8690   7.9642   8.0133
     8.0944   8.1197   8.2135   8.2840   8.3349   8.3407   8.4392   8.5066
     8.5222   8.5638   8.6226   8.6350   8.6507   8.7306   8.7535   8.8293
     8.8580   8.8745   8.9056   8.9425   8.9724   9.0497   9.1315   9.1635
     9.1872   9.2114   9.3168   9.3402   9.3807   9.4318   9.4578   9.4704
     9.5217   9.5363   9.6630   9.6884   9.7438   9.7515   9.8379   9.8660
     9.8719   9.8840  10.0171  10.0214  10.1831  10.1917  10.2559  10.2961
    10.3816  10.4422  10.5772  10.6301  10.7097  10.7428  10.7843  10.8013
    10.8871  10.9044  10.9816  10.9986  11.0495  11.0542  11.1531  11.1696
    11.2060  11.2269  11.3384  11.3517  11.4253  11.4430  11.5780  11.5902
    11.6265  11.6416  11.6876  11.7168  11.7716  11.7835  11.8937  11.9044
    11.9134  11.9438  11.9801  11.9944  12.0248  12.0502  12.0914  12.1098
    12.1672  12.1746  12.1808  12.1958  12.2881  12.2963  12.3301  12.3397
    12.4025  12.4078  12.4581  12.4705  12.5000  12.5098  12.6072  12.6105
    12.6646  12.6879  12.7713  12.7953

          k = 0.2000 0.8083 0.0000 ( 38305 PWs)   bands (ev):

    -7.8484  -7.8468  -7.6483  -7.6468  -7.5196  -7.5181  -7.4233  -7.4219
    -7.3380  -7.3366  -7.2501  -7.2488  -7.1549  -7.1537  -7.0533  -7.0521
    -6.9471  -6.9462  -6.8379  -6.8370  -6.7254  -6.7247  -6.6089  -6.6083
    -6.4867  -6.4861  -6.3477  -6.3471  -5.8846  -5.8830  -3.8669  -3.8345
    -3.6932  -3.6627  -3.5814  -3.5517  -3.4972  -3.4677  -3.4265  -3.3971
    -3.3632  -3.3359  -3.3002  -3.2773  -3.2315  -3.2114  -3.1578  -3.1389
    -3.0806  -3.0626  -3.0006  -2.9831  -2.9172  -2.9002  -2.8269  -2.8104
    -2.7144  -2.6988  -2.4319  -2.4224  -0.5057  -0.2756  -0.2550  -0.1468
    -0.1168  -0.0239   0.0476   0.0757   0.0977   0.1386   0.2281   0.2448
     0.3087   0.3208   0.3849   0.4531   0.4796   0.5077   0.5717   0.6348
     0.6804   0.7309   0.7796   0.8355   0.8491   0.9325   0.9530   0.9880
     1.0203   1.0661   1.1014   1.1636   1.1737   1.2166   1.2555   1.2885
     1.3203   1.3508   1.4073   1.4089   1.4961   1.5116   1.5764   1.6514
     1.7013   1.8087   1.8945   2.0127   2.0571   2.1308   2.2650   2.2979
     2.3464   2.4126   2.4558   2.5610   2.5861   2.6255   2.6420   2.7622
     2.7901   2.8574   2.8859   2.8959   2.9412   3.0319   3.0978   3.1473
     3.1676   3.1930   3.2539   3.3208   3.3838   3.4513   3.5022   3.5439
     3.5940   3.6440   3.6946   3.7565   3.8485   3.9287   3.9792   4.0414
     4.1096   4.1954   4.2874   4.3536   4.5280   4.6500   5.1321   5.1630
     5.4540   5.4736   5.5957   5.6070   5.7852   5.7892   5.8469   5.8567
     5.9065   5.9272   6.0218   6.0281   6.1675   6.1766   6.2555   6.2760
     6.3030   6.3146   6.4794   6.5068   6.5611   6.5693   6.6926   6.7272
     6.7779   6.8182   6.8937   6.9298   7.0188   7.0852   7.1162   7.1751
     7.2164   7.3091   7.3404   7.3978   7.4749   7.5354   7.6158   7.7284
     7.8188   7.8912   7.9736   8.0500   8.0853   8.1434   8.2000   8.2316
     8.3323   8.3345   8.4502   8.4597   8.5234   8.5533   8.5861   8.6418
     8.6867   8.6920   8.7817   8.7941   8.8516   8.8634   8.8912   8.9339
     8.9805   8.9980   9.0210   9.0435   9.0661   9.0811   9.1281   9.1353
     9.1762   9.1792   9.2227   9.2452   9.2861   9.2972   9.3462   9.3657
     9.3867   9.3911   9.4161   9.4259   9.5019   9.5159   9.5681   9.5893
     9.6308   9.6589   9.6645   9.6889   9.7087   9.7200   9.7987   9.8147
     9.8544   9.8626   9.9287   9.9360   9.9656   9.9894  10.0423  10.0840
    10.1005  10.1641  10.1922  10.2221  10.2568  10.2677  10.3891  10.4366
    10.4706  10.4784  10.6276  10.6875  10.7893  10.8280  10.9460  10.9802
    11.1205  11.1323  11.2747  11.2786  11.5258  11.5268  11.5905  11.6211
    11.6460  11.6561  11.9429  11.9509  12.0401  12.0527  12.3654  12.3762
    12.3856  12.3940  12.6436  12.6526  12.8318  12.8507  12.9718  13.0029
    13.2840  13.2930  13.3600  13.3793

          k = 0.2000 1.0392 0.0000 ( 38217 PWs)   bands (ev):

    -8.5192  -8.5181  -8.3146  -8.3135  -8.1833  -8.1822  -8.0820  -8.0809
    -7.9850  -7.9839  -7.8785  -7.8773  -7.7594  -7.7583  -7.6292  -7.6280
    -7.4899  -7.4887  -7.3444  -7.3433  -7.1956  -7.1945  -7.0448  -7.0437
    -6.8901  -6.8892  -6.7236  -6.7228  -6.3103  -6.3082  -4.1452  -4.1288
    -3.8938  -3.8777  -3.7052  -3.6886  -3.4952  -3.4778  -3.2610  -3.2426
    -3.0143  -2.9951  -2.7663  -2.7464  -2.5260  -2.5058  -2.3006  -2.2809
    -2.0949  -2.0766  -1.9104  -1.8941  -1.7415  -1.7266  -1.5795  -1.5650
    -1.4163  -1.4020  -1.1947  -1.1851   0.3676   0.4727   0.5836   0.6928
     0.7226   0.8363   0.8456   0.9706   0.9778   1.1174   1.1230   1.2561
     1.2913   1.3936   1.4461   1.5327   1.5472   1.6428   1.6744   1.7278
     1.7320   1.8116   1.8438   1.8851   1.9197   1.9469   2.0142   2.0250
     2.0532   2.0788   2.1452   2.1489   2.2106   2.2369   2.2541   2.2660
     2.3669   2.3850   2.4131   2.4225   2.4672   2.4926   2.5434   2.5830
     2.6205   2.6341   2.6673   2.7156   2.7314   2.7835   2.8127   2.8199
     2.8711   2.9231   2.9535   2.9642   3.0129   3.0650   3.0885   3.0980
     3.1129   3.2041   3.2238   3.2314   3.2599   3.3391   3.3643   3.3723
     3.4407   3.4747   3.4753   3.5653   3.6696   3.7641   3.7962   3.8350
     3.8824   3.9105   3.9514   4.0455   4.0960   4.1813   4.2336   4.3133
     4.3958   4.4820   4.6164   4.6971   4.9648   5.0068   5.0182   5.0809
     5.4437   5.4489   5.5988   5.6128   5.6881   5.6921   5.7618   5.7628
     5.8625   5.8637   5.9152   5.9303   6.0444   6.0548   6.0925   6.0979
     6.1493   6.1692   6.2978   6.3002   6.3405   6.3715   6.4012   6.4251
     6.5557   6.5568   6.5728   6.6356   6.6921   6.7082   6.8004   6.8054
     6.8739   6.8882   6.9967   7.0054   7.0536   7.0882   7.1218   7.1552
     7.2132   7.2579   7.2727   7.3067   7.3820   7.4220   7.4770   7.4830
     7.5186   7.5442   7.6455   7.6592   7.7203   7.7429   7.7696   7.7720
     7.8678   7.8685   7.9472   7.9621   7.9963   8.0150   8.0849   8.0934
     8.1864   8.2235   8.2613   8.2628   8.3452   8.4022   8.4820   8.4870
     8.5240   8.5583   8.6244   8.6639   8.7057   8.7065   8.7520   8.7849
     8.9029   8.9428   8.9512   8.9519   9.0229   9.0427   9.0859   9.1160
     9.2154   9.2358   9.2515   9.2743   9.3565   9.3719   9.3987   9.4187
     9.4851   9.5034   9.5641   9.5814   9.6629   9.6695   9.7635   9.7712
     9.9520   9.9574  10.0968  10.0969  10.1975  10.2057  10.3569  10.3663
    10.5098  10.5114  10.6708  10.6721  10.7643  10.7724  10.8042  10.8139
    10.9555  10.9614  10.9893  10.9982  11.0843  11.0944  11.1415  11.1486
    11.1545  11.1640  11.2993  11.3093  11.4044  11.4220  11.4888  11.4977
    11.5321  11.5440  11.7132  11.7230  11.7515  11.7657  11.9220  11.9441
    11.9736  11.9908  12.1664  12.1771

          k = 0.4000 0.2309 0.0000 ( 38306 PWs)   bands (ev):

    -7.5766  -7.5751  -7.3834  -7.3820  -7.2589  -7.2576  -7.1671  -7.1659
    -7.0907  -7.0896  -7.0184  -7.0174  -6.9441  -6.9433  -6.8663  -6.8657
    -6.7853  -6.7849  -6.7008  -6.7007  -6.6131  -6.6130  -6.5212  -6.5209
    -6.4222  -6.4217  -6.2969  -6.2963  -5.7825  -5.7821  -4.3647  -4.3553
    -4.1657  -4.1560  -4.0355  -4.0257  -3.9273  -3.9170  -3.8156  -3.8043
    -3.6923  -3.6797  -3.5592  -3.5451  -3.4211  -3.4054  -3.2839  -3.2672
    -3.1514  -3.1349  -3.0209  -3.0055  -2.8878  -2.8727  -2.7506  -2.7356
    -2.6047  -2.5900  -2.3681  -2.3588  -1.0621  -0.9646  -0.8265  -0.7308
    -0.6533  -0.5595  -0.4579  -0.3669  -0.2271  -0.1396   0.0352   0.1182
     0.3245   0.4012   0.6359   0.6956   0.7628   0.8169   0.9545   0.9648
     1.0181   1.0284   1.1010   1.1487   1.1788   1.1919   1.2198   1.2696
     1.3089   1.3435   1.3682   1.3944   1.4041   1.4147   1.5153   1.5389
     1.5434   1.5566   1.6296   1.6563   1.6871   1.6988   1.7056   1.7262
     1.8531   1.8719   1.8917   1.8962   1.9523   1.9534   2.0534   2.0733
     2.1190   2.1200   2.2211   2.2344   2.2834   2.3006   2.3392   2.3423
     2.4939   2.5059   2.5457   2.5516   2.5693   2.5915   2.7329   2.7637
     2.7929   2.8045   2.9027   2.9152   3.0248   3.0378   3.0926   3.1047
     3.2429   3.2572   3.3388   3.3942   3.5213   3.5539   3.6756   3.7088
     3.9459   4.0008   4.2523   4.3085   4.6231   4.6868   4.7832   4.8021
     5.2427   5.3003   5.3342   5.3354   5.3848   5.3960   5.6266   5.6280
     5.6527   5.6952   5.7543   5.7974   5.9152   5.9212   6.0398   6.0531
     6.1656   6.1868   6.2680   6.2721   6.4129   6.4333   6.6011   6.6042
     6.6627   6.7002   6.7892   6.8290   6.8791   6.8801   7.0061   7.0120
     7.0754   7.0953   7.1322   7.1483   7.2414   7.2696   7.2910   7.2932
     7.3956   7.4019   7.4586   7.4645   7.5389   7.5505   7.6673   7.6693
     7.7557   7.7867   7.8013   7.8611   7.8870   7.9052   8.1044   8.1045
     8.1935   8.2003   8.3365   8.3374   8.5213   8.5229   8.7652   8.7948
     8.8955   8.9124   9.0162   9.0299   9.1494   9.1609   9.3603   9.3693
     9.4016   9.4116   9.4624   9.4765   9.5865   9.5891   9.6751   9.6894
     9.7413   9.7546   9.7935   9.8048   9.8880   9.8908   9.9262   9.9469
    10.0546  10.0726  10.1195  10.1432  10.2609  10.2730  10.2856  10.2910
    10.3873  10.4225  10.5253  10.5436  10.6209  10.6542  10.8602  10.8892
    11.0190  11.0342  11.1665  11.1692  11.2719  11.2986  11.5162  11.5318
    11.7022  11.7121  11.7843  11.7920  11.9523  11.9572  12.0740  12.1003
    12.2618  12.2814  12.3817  12.3885  12.4810  12.5106  12.5883  12.6175
    12.7107  12.7492  12.9036  12.9201  13.0365  13.0542  13.1931  13.2193
    13.2495  13.2565  13.3235  13.3262  13.3802  13.3837  13.4664  13.4726
    13.5172  13.5210  13.6092  13.6146

          k = 0.4000 0.4619 0.0000 ( 38377 PWs)   bands (ev):

    -7.1052  -7.1037  -6.9459  -6.9446  -6.8391  -6.8377  -6.7551  -6.7537
    -6.6852  -6.6838  -6.6258  -6.6244  -6.5743  -6.5729  -6.5282  -6.5268
    -6.4847  -6.4833  -6.4411  -6.4397  -6.3939  -6.3925  -6.3393  -6.3379
    -6.2688  -6.2673  -6.1378  -6.1363  -5.5511  -5.5488  -4.4552  -4.4364
    -4.2702  -4.2507  -4.1497  -4.1296  -4.0556  -4.0346  -3.9690  -3.9465
    -3.8829  -3.8577  -3.8014  -3.7708  -3.7380  -3.7005  -3.6740  -3.6427
    -3.5939  -3.5646  -3.5092  -3.4789  -3.4225  -3.3908  -3.3309  -3.2980
    -3.2209  -3.1878  -2.9733  -2.9462  -1.0202  -0.9179  -0.7894  -0.6858
    -0.6290  -0.5202  -0.4625  -0.3421  -0.2852  -0.1770  -0.1064  -0.0618
    -0.0299   0.0106   0.0621   0.1512   0.1895   0.2061   0.2337   0.2846
     0.3214   0.3751   0.3830   0.4099   0.4435   0.4925   0.5250   0.5351
     0.5983   0.6309   0.6583   0.7170   0.7388   0.7810   0.8300   0.8414
     0.8965   0.9381   0.9700   1.0396   1.0774   1.1593   1.1914   1.2259
     1.2558   1.3464   1.4838   1.5065   1.5688   1.6384   1.7726   1.8113
     1.8984   1.9181   1.9643   2.0773   2.1047   2.1493   2.1880   2.2904
     2.3124   2.4100   2.4596   2.5261   2.6581   2.6991   2.7376   2.8090
     2.9053   2.9576   3.0447   3.0922   3.1620   3.2194   3.3129   3.3703
     3.4183   3.4440   3.5140   3.5478   3.6538   3.7048   3.7625   3.7737
     3.8588   3.8818   4.0428   4.0990   4.1974   4.2908   5.1906   5.2037
     5.4245   5.4424   5.5150   5.5210   5.7151   5.7185   5.8092   5.8292
     5.8525   5.8592   6.0642   6.0779   6.1249   6.1550   6.1740   6.2355
     6.3670   6.4677   6.4830   6.5272   6.7475   6.8015   6.8896   6.9016
     6.9258   6.9528   7.1441   7.2002   7.2563   7.2994   7.3047   7.3416
     7.5331   7.6588   7.7021   7.7447   7.8077   7.8690   7.9642   8.0133
     8.0944   8.1197   8.2135   8.2840   8.3349   8.3407   8.4392   8.5066
     8.5222   8.5638   8.6226   8.6350   8.6507   8.7306   8.7535   8.8293
     8.8580   8.8745   8.9056   8.9425   8.9724   9.0497   9.1315   9.1635
     9.1872   9.2114   9.3168   9.3402   9.3807   9.4318   9.4578   9.4704
     9.5217   9.5363   9.6630   9.6884   9.7438   9.7515   9.8379   9.8660
     9.8719   9.8840  10.0171  10.0214  10.1831  10.1917  10.2559  10.2961
    10.3816  10.4422  10.5772  10.6301  10.7097  10.7428  10.7843  10.8013
    10.8871  10.9044  10.9816  10.9986  11.0495  11.0542  11.1531  11.1696
    11.2060  11.2269  11.3384  11.3517  11.4253  11.4430  11.5780  11.5902
    11.6265  11.6416  11.6876  11.7168  11.7716  11.7835  11.8937  11.9044
    11.9134  11.9438  11.9801  11.9944  12.0248  12.0502  12.0914  12.1098
    12.1672  12.1746  12.1808  12.1958  12.2881  12.2963  12.3301  12.3397
    12.4025  12.4078  12.4581  12.4705  12.5000  12.5098  12.6072  12.6105
    12.6646  12.6879  12.7713  12.7953

          k = 0.4000 0.6928 0.0000 ( 38377 PWs)   bands (ev):

    -7.1052  -7.1037  -6.9459  -6.9446  -6.8391  -6.8377  -6.7551  -6.7537
    -6.6852  -6.6838  -6.6258  -6.6244  -6.5743  -6.5729  -6.5282  -6.5268
    -6.4847  -6.4833  -6.4411  -6.4397  -6.3939  -6.3925  -6.3393  -6.3379
    -6.2688  -6.2673  -6.1378  -6.1363  -5.5511  -5.5488  -4.4552  -4.4364
    -4.2702  -4.2507  -4.1497  -4.1296  -4.0556  -4.0346  -3.9690  -3.9465
    -3.8829  -3.8577  -3.8014  -3.7708  -3.7380  -3.7005  -3.6740  -3.6427
    -3.5939  -3.5646  -3.5092  -3.4789  -3.4225  -3.3908  -3.3309  -3.2980
    -3.2209  -3.1878  -2.9733  -2.9462  -1.0202  -0.9179  -0.7894  -0.6858
    -0.6290  -0.5202  -0.4625  -0.3421  -0.2852  -0.1770  -0.1064  -0.0618
    -0.0299   0.0106   0.0621   0.1512   0.1895   0.2061   0.2337   0.2846
     0.3214   0.3751   0.3830   0.4099   0.4435   0.4925   0.5250   0.5351
     0.5983   0.6309   0.6583   0.7170   0.7388   0.7810   0.8300   0.8414
     0.8965   0.9381   0.9700   1.0396   1.0774   1.1593   1.1914   1.2259
     1.2558   1.3464   1.4838   1.5065   1.5688   1.6384   1.7726   1.8113
     1.8984   1.9181   1.9643   2.0773   2.1047   2.1493   2.1880   2.2904
     2.3124   2.4100   2.4596   2.5261   2.6581   2.6991   2.7376   2.8090
     2.9053   2.9576   3.0447   3.0922   3.1620   3.2194   3.3129   3.3703
     3.4183   3.4440   3.5140   3.5478   3.6538   3.7048   3.7625   3.7737
     3.8588   3.8818   4.0428   4.0990   4.1974   4.2908   5.1906   5.2037
     5.4245   5.4424   5.5150   5.5210   5.7151   5.7185   5.8092   5.8292
     5.8525   5.8592   6.0642   6.0779   6.1249   6.1550   6.1740   6.2355
     6.3670   6.4677   6.4830   6.5272   6.7475   6.8015   6.8896   6.9016
     6.9258   6.9528   7.1441   7.2002   7.2563   7.2994   7.3047   7.3416
     7.5331   7.6588   7.7021   7.7447   7.8077   7.8690   7.9642   8.0133
     8.0944   8.1197   8.2135   8.2840   8.3349   8.3407   8.4392   8.5066
     8.5222   8.5638   8.6226   8.6350   8.6507   8.7306   8.7535   8.8293
     8.8580   8.8745   8.9056   8.9425   8.9724   9.0497   9.1315   9.1635
     9.1872   9.2114   9.3168   9.3402   9.3807   9.4318   9.4578   9.4704
     9.5217   9.5363   9.6630   9.6884   9.7438   9.7515   9.8379   9.8660
     9.8719   9.8840  10.0171  10.0214  10.1831  10.1917  10.2559  10.2961
    10.3816  10.4422  10.5772  10.6301  10.7097  10.7428  10.7843  10.8013
    10.8871  10.9044  10.9816  10.9986  11.0495  11.0542  11.1531  11.1696
    11.2060  11.2269  11.3384  11.3517  11.4253  11.4430  11.5780  11.5902
    11.6265  11.6416  11.6876  11.7168  11.7716  11.7835  11.8937  11.9044
    11.9134  11.9438  11.9801  11.9944  12.0248  12.0502  12.0914  12.1098
    12.1672  12.1746  12.1808  12.1958  12.2881  12.2963  12.3301  12.3397
    12.4025  12.4078  12.4581  12.4705  12.5000  12.5098  12.6072  12.6105
    12.6646  12.6879  12.7713  12.7953

          k = 0.4000 0.9238 0.0000 ( 38306 PWs)   bands (ev):

    -7.5766  -7.5751  -7.3834  -7.3820  -7.2589  -7.2576  -7.1671  -7.1659
    -7.0907  -7.0896  -7.0184  -7.0174  -6.9441  -6.9433  -6.8663  -6.8657
    -6.7853  -6.7849  -6.7008  -6.7007  -6.6131  -6.6130  -6.5212  -6.5209
    -6.4222  -6.4217  -6.2969  -6.2963  -5.7825  -5.7821  -4.3647  -4.3553
    -4.1657  -4.1560  -4.0355  -4.0257  -3.9273  -3.9169  -3.8156  -3.8043
    -3.6923  -3.6797  -3.5592  -3.5451  -3.4211  -3.4054  -3.2839  -3.2672
    -3.1514  -3.1349  -3.0209  -3.0055  -2.8878  -2.8727  -2.7506  -2.7356
    -2.6047  -2.5900  -2.3681  -2.3588  -1.0621  -0.9646  -0.8265  -0.7308
    -0.6533  -0.5595  -0.4579  -0.3669  -0.2271  -0.1396   0.0352   0.1182
     0.3245   0.4012   0.6359   0.6956   0.7628   0.8169   0.9545   0.9648
     1.0181   1.0284   1.1010   1.1487   1.1788   1.1919   1.2198   1.2696
     1.3089   1.3435   1.3682   1.3944   1.4041   1.4147   1.5153   1.5389
     1.5434   1.5566   1.6296   1.6563   1.6871   1.6988   1.7056   1.7262
     1.8531   1.8719   1.8917   1.8962   1.9523   1.9534   2.0534   2.0733
     2.1190   2.1200   2.2211   2.2344   2.2834   2.3006   2.3392   2.3423
     2.4939   2.5059   2.5457   2.5516   2.5693   2.5915   2.7329   2.7637
     2.7929   2.8045   2.9027   2.9152   3.0248   3.0378   3.0926   3.1047
     3.2429   3.2572   3.3388   3.3942   3.5213   3.5539   3.6756   3.7088
     3.9459   4.0008   4.2523   4.3085   4.6231   4.6868   4.7832   4.8021
     5.2427   5.3003   5.3342   5.3354   5.3848   5.3960   5.6266   5.6280
     5.6527   5.6952   5.7543   5.7974   5.9152   5.9212   6.0398   6.0531
     6.1656   6.1868   6.2680   6.2721   6.4129   6.4333   6.6011   6.6042
     6.6627   6.7002   6.7892   6.8290   6.8791   6.8801   7.0061   7.0120
     7.0754   7.0953   7.1322   7.1483   7.2414   7.2696   7.2910   7.2932
     7.3956   7.4019   7.4586   7.4645   7.5389   7.5505   7.6673   7.6693
     7.7557   7.7867   7.8013   7.8611   7.8870   7.9052   8.1044   8.1046
     8.1935   8.2003   8.3365   8.3374   8.5213   8.5229   8.7652   8.7948
     8.8955   8.9124   9.0162   9.0299   9.1494   9.1609   9.3603   9.3693
     9.4016   9.4116   9.4624   9.4765   9.5865   9.5891   9.6751   9.6894
     9.7413   9.7546   9.7935   9.8048   9.8880   9.8908   9.9262   9.9469
    10.0546  10.0726  10.1195  10.1432  10.2609  10.2730  10.2856  10.2910
    10.3873  10.4225  10.5253  10.5436  10.6209  10.6542  10.8602  10.8892
    11.0190  11.0342  11.1665  11.1692  11.2719  11.2986  11.5162  11.5318
    11.7022  11.7121  11.7843  11.7920  11.9523  11.9572  12.0740  12.1003
    12.2618  12.2814  12.3817  12.3885  12.4810  12.5106  12.5883  12.6175
    12.7107  12.7492  12.9036  12.9201  13.0365  13.0542  13.1931  13.2193
    13.2495  13.2565  13.3235  13.3262  13.3802  13.3837  13.4664  13.4726
    13.5172  13.5210  13.6092  13.6146

          k = 0.4000 1.1547 0.0000 ( 38305 PWs)   bands (ev):

    -7.8484  -7.8468  -7.6483  -7.6468  -7.5196  -7.5181  -7.4233  -7.4219
    -7.3380  -7.3366  -7.2501  -7.2488  -7.1549  -7.1537  -7.0533  -7.0521
    -6.9471  -6.9462  -6.8379  -6.8370  -6.7254  -6.7247  -6.6089  -6.6083
    -6.4867  -6.4861  -6.3477  -6.3471  -5.8846  -5.8830  -3.8669  -3.8345
    -3.6932  -3.6627  -3.5814  -3.5517  -3.4972  -3.4677  -3.4265  -3.3971
    -3.3632  -3.3359  -3.3002  -3.2773  -3.2315  -3.2114  -3.1578  -3.1389
    -3.0806  -3.0626  -3.0006  -2.9831  -2.9172  -2.9002  -2.8269  -2.8104
    -2.7144  -2.6988  -2.4319  -2.4224  -0.5057  -0.2756  -0.2550  -0.1468
    -0.1168  -0.0239   0.0476   0.0757   0.0977   0.1386   0.2281   0.2448
     0.3087   0.3208   0.3849   0.4531   0.4796   0.5077   0.5717   0.6348
     0.6804   0.7309   0.7796   0.8355   0.8491   0.9325   0.9530   0.9880
     1.0203   1.0661   1.1014   1.1636   1.1737   1.2166   1.2555   1.2885
     1.3203   1.3508   1.4073   1.4089   1.4961   1.5116   1.5764   1.6514
     1.7013   1.8087   1.8945   2.0127   2.0571   2.1308   2.2650   2.2979
     2.3464   2.4126   2.4558   2.5610   2.5861   2.6255   2.6420   2.7622
     2.7901   2.8574   2.8859   2.8959   2.9412   3.0319   3.0978   3.1473
     3.1676   3.1930   3.2539   3.3208   3.3838   3.4513   3.5022   3.5439
     3.5940   3.6440   3.6946   3.7565   3.8485   3.9287   3.9792   4.0414
     4.1096   4.1954   4.2874   4.3536   4.5280   4.6500   5.1321   5.1630
     5.4540   5.4736   5.5957   5.6070   5.7852   5.7892   5.8469   5.8567
     5.9065   5.9272   6.0218   6.0281   6.1675   6.1766   6.2555   6.2760
     6.3030   6.3146   6.4794   6.5068   6.5611   6.5693   6.6926   6.7272
     6.7779   6.8182   6.8937   6.9298   7.0188   7.0852   7.1162   7.1751
     7.2164   7.3091   7.3404   7.3978   7.4749   7.5354   7.6158   7.7284
     7.8188   7.8912   7.9736   8.0500   8.0853   8.1434   8.2000   8.2316
     8.3323   8.3345   8.4502   8.4597   8.5234   8.5533   8.5861   8.6418
     8.6867   8.6920   8.7817   8.7941   8.8516   8.8634   8.8912   8.9339
     8.9805   8.9980   9.0210   9.0435   9.0661   9.0811   9.1281   9.1353
     9.1762   9.1792   9.2227   9.2452   9.2861   9.2972   9.3462   9.3657
     9.3867   9.3911   9.4161   9.4259   9.5019   9.5159   9.5681   9.5893
     9.6308   9.6589   9.6645   9.6889   9.7087   9.7200   9.7987   9.8147
     9.8544   9.8626   9.9287   9.9360   9.9656   9.9894  10.0423  10.0840
    10.1005  10.1641  10.1922  10.2221  10.2568  10.2677  10.3891  10.4366
    10.4706  10.4784  10.6276  10.6875  10.7893  10.8280  10.9460  10.9802
    11.1205  11.1323  11.2747  11.2786  11.5258  11.5268  11.5905  11.6211
    11.6460  11.6561  11.9429  11.9509  12.0401  12.0527  12.3654  12.3762
    12.3856  12.3940  12.6436  12.6526  12.8318  12.8507  12.9718  13.0029
    13.2840  13.2930  13.3600  13.3793

          k = 0.6000 0.3464 0.0000 ( 38306 PWs)   bands (ev):

    -7.5766  -7.5751  -7.3834  -7.3820  -7.2589  -7.2576  -7.1671  -7.1659
    -7.0907  -7.0896  -7.0184  -7.0174  -6.9441  -6.9433  -6.8663  -6.8657
    -6.7853  -6.7849  -6.7008  -6.7007  -6.6131  -6.6130  -6.5212  -6.5209
    -6.4222  -6.4217  -6.2969  -6.2963  -5.7825  -5.7821  -4.3647  -4.3553
    -4.1657  -4.1560  -4.0355  -4.0257  -3.9273  -3.9170  -3.8156  -3.8043
    -3.6923  -3.6797  -3.5592  -3.5451  -3.4211  -3.4054  -3.2839  -3.2672
    -3.1514  -3.1349  -3.0209  -3.0055  -2.8878  -2.8727  -2.7506  -2.7356
    -2.6047  -2.5900  -2.3681  -2.3588  -1.0621  -0.9646  -0.8265  -0.7308
    -0.6533  -0.5595  -0.4579  -0.3669  -0.2271  -0.1396   0.0352   0.1182
     0.3245   0.4012   0.6359   0.6956   0.7628   0.8169   0.9545   0.9648
     1.0181   1.0284   1.1010   1.1487   1.1788   1.1919   1.2198   1.2696
     1.3089   1.3435   1.3682   1.3944   1.4041   1.4147   1.5153   1.5389
     1.5434   1.5566   1.6296   1.6563   1.6871   1.6988   1.7056   1.7262
     1.8531   1.8719   1.8917   1.8962   1.9523   1.9534   2.0534   2.0733
     2.1190   2.1200   2.2211   2.2344   2.2834   2.3006   2.3392   2.3423
     2.4939   2.5059   2.5457   2.5516   2.5693   2.5915   2.7329   2.7637
     2.7929   2.8045   2.9027   2.9152   3.0248   3.0378   3.0926   3.1047
     3.2429   3.2572   3.3388   3.3942   3.5213   3.5539   3.6756   3.7088
     3.9459   4.0008   4.2523   4.3085   4.6231   4.6868   4.7832   4.8021
     5.2427   5.3003   5.3342   5.3354   5.3848   5.3960   5.6266   5.6280
     5.6527   5.6952   5.7543   5.7974   5.9152   5.9212   6.0398   6.0531
     6.1656   6.1868   6.2680   6.2721   6.4129   6.4333   6.6011   6.6042
     6.6627   6.7002   6.7892   6.8290   6.8791   6.8801   7.0061   7.0120
     7.0754   7.0953   7.1322   7.1483   7.2414   7.2696   7.2910   7.2932
     7.3956   7.4019   7.4586   7.4645   7.5389   7.5505   7.6673   7.6693
     7.7557   7.7867   7.8013   7.8611   7.8870   7.9052   8.1044   8.1045
     8.1935   8.2003   8.3365   8.3374   8.5213   8.5229   8.7652   8.7948
     8.8955   8.9124   9.0162   9.0299   9.1494   9.1609   9.3603   9.3693
     9.4016   9.4116   9.4624   9.4765   9.5865   9.5891   9.6751   9.6894
     9.7413   9.7546   9.7935   9.8048   9.8880   9.8908   9.9262   9.9469
    10.0546  10.0726  10.1195  10.1432  10.2609  10.2730  10.2856  10.2910
    10.3873  10.4225  10.5253  10.5436  10.6209  10.6542  10.8602  10.8892
    11.0190  11.0342  11.1665  11.1692  11.2719  11.2986  11.5162  11.5318
    11.7022  11.7121  11.7843  11.7920  11.9523  11.9572  12.0740  12.1003
    12.2618  12.2814  12.3817  12.3885  12.4810  12.5106  12.5883  12.6175
    12.7107  12.7492  12.9036  12.9201  13.0365  13.0542  13.1931  13.2193
    13.2495  13.2565  13.3235  13.3262  13.3802  13.3837  13.4664  13.4726
    13.5172  13.5210  13.6092  13.6146

          k = 0.6000 0.5774 0.0000 ( 38305 PWs)   bands (ev):

    -7.8484  -7.8468  -7.6483  -7.6468  -7.5196  -7.5181  -7.4233  -7.4219
    -7.3380  -7.3366  -7.2501  -7.2488  -7.1549  -7.1537  -7.0533  -7.0521
    -6.9471  -6.9462  -6.8379  -6.8370  -6.7254  -6.7247  -6.6089  -6.6083
    -6.4867  -6.4861  -6.3477  -6.3471  -5.8846  -5.8830  -3.8669  -3.8345
    -3.6932  -3.6627  -3.5814  -3.5517  -3.4972  -3.4677  -3.4265  -3.3971
    -3.3632  -3.3359  -3.3002  -3.2773  -3.2315  -3.2114  -3.1578  -3.1389
    -3.0806  -3.0626  -3.0006  -2.9831  -2.9172  -2.9002  -2.8269  -2.8104
    -2.7144  -2.6988  -2.4319  -2.4224  -0.5057  -0.2756  -0.2550  -0.1468
    -0.1168  -0.0239   0.0476   0.0757   0.0977   0.1386   0.2281   0.2448
     0.3087   0.3208   0.3849   0.4531   0.4796   0.5077   0.5717   0.6348
     0.6804   0.7309   0.7796   0.8355   0.8491   0.9325   0.9530   0.9880
     1.0203   1.0661   1.1014   1.1636   1.1737   1.2166   1.2555   1.2885
     1.3203   1.3508   1.4073   1.4089   1.4961   1.5116   1.5764   1.6514
     1.7013   1.8087   1.8945   2.0127   2.0571   2.1308   2.2650   2.2979
     2.3464   2.4126   2.4558   2.5610   2.5861   2.6255   2.6420   2.7622
     2.7901   2.8574   2.8859   2.8959   2.9412   3.0319   3.0978   3.1473
     3.1676   3.1930   3.2539   3.3208   3.3838   3.4513   3.5022   3.5439
     3.5940   3.6440   3.6946   3.7565   3.8485   3.9287   3.9792   4.0414
     4.1096   4.1954   4.2874   4.3536   4.5280   4.6500   5.1321   5.1630
     5.4540   5.4736   5.5957   5.6070   5.7852   5.7892   5.8469   5.8567
     5.9065   5.9272   6.0218   6.0281   6.1675   6.1766   6.2555   6.2760
     6.3030   6.3146   6.4794   6.5068   6.5611   6.5693   6.6926   6.7272
     6.7779   6.8182   6.8937   6.9298   7.0188   7.0852   7.1162   7.1751
     7.2164   7.3091   7.3404   7.3978   7.4749   7.5354   7.6158   7.7284
     7.8188   7.8912   7.9736   8.0500   8.0853   8.1434   8.2000   8.2316
     8.3323   8.3345   8.4502   8.4597   8.5234   8.5533   8.5861   8.6418
     8.6867   8.6920   8.7817   8.7941   8.8516   8.8634   8.8912   8.9339
     8.9805   8.9980   9.0210   9.0435   9.0661   9.0811   9.1281   9.1353
     9.1762   9.1792   9.2227   9.2452   9.2861   9.2972   9.3462   9.3657
     9.3867   9.3911   9.4161   9.4259   9.5019   9.5159   9.5681   9.5893
     9.6308   9.6589   9.6645   9.6889   9.7087   9.7200   9.7987   9.8147
     9.8544   9.8626   9.9287   9.9360   9.9656   9.9894  10.0423  10.0840
    10.1005  10.1641  10.1922  10.2221  10.2568  10.2677  10.3891  10.4366
    10.4706  10.4784  10.6276  10.6875  10.7893  10.8280  10.9460  10.9802
    11.1205  11.1323  11.2747  11.2786  11.5258  11.5268  11.5905  11.6211
    11.6460  11.6561  11.9429  11.9509  12.0401  12.0527  12.3654  12.3762
    12.3856  12.3940  12.6436  12.6526  12.8318  12.8507  12.9718  13.0029
    13.2840  13.2930  13.3600  13.3793

          k = 0.6000 0.8083 0.0000 ( 38306 PWs)   bands (ev):

    -7.5766  -7.5751  -7.3834  -7.3820  -7.2589  -7.2576  -7.1671  -7.1659
    -7.0907  -7.0896  -7.0184  -7.0174  -6.9441  -6.9433  -6.8663  -6.8657
    -6.7853  -6.7849  -6.7008  -6.7007  -6.6131  -6.6130  -6.5212  -6.5209
    -6.4222  -6.4217  -6.2969  -6.2963  -5.7825  -5.7821  -4.3647  -4.3553
    -4.1657  -4.1560  -4.0355  -4.0257  -3.9273  -3.9169  -3.8156  -3.8043
    -3.6923  -3.6797  -3.5592  -3.5451  -3.4211  -3.4054  -3.2839  -3.2672
    -3.1514  -3.1349  -3.0209  -3.0055  -2.8878  -2.8727  -2.7506  -2.7356
    -2.6047  -2.5900  -2.3681  -2.3588  -1.0621  -0.9646  -0.8265  -0.7308
    -0.6533  -0.5595  -0.4579  -0.3669  -0.2271  -0.1396   0.0352   0.1182
     0.3245   0.4012   0.6359   0.6956   0.7628   0.8169   0.9545   0.9648
     1.0181   1.0284   1.1010   1.1487   1.1788   1.1919   1.2198   1.2696
     1.3089   1.3435   1.3682   1.3944   1.4041   1.4147   1.5153   1.5389
     1.5434   1.5566   1.6296   1.6563   1.6871   1.6988   1.7056   1.7262
     1.8531   1.8719   1.8917   1.8962   1.9523   1.9534   2.0534   2.0733
     2.1190   2.1200   2.2211   2.2344   2.2834   2.3006   2.3392   2.3423
     2.4939   2.5059   2.5457   2.5516   2.5693   2.5915   2.7329   2.7637
     2.7929   2.8045   2.9027   2.9152   3.0248   3.0378   3.0926   3.1047
     3.2429   3.2572   3.3388   3.3942   3.5213   3.5539   3.6756   3.7088
     3.9459   4.0008   4.2523   4.3085   4.6231   4.6868   4.7832   4.8021
     5.2427   5.3003   5.3342   5.3354   5.3848   5.3960   5.6266   5.6280
     5.6527   5.6952   5.7543   5.7974   5.9152   5.9212   6.0398   6.0531
     6.1656   6.1868   6.2680   6.2721   6.4129   6.4333   6.6011   6.6042
     6.6627   6.7002   6.7892   6.8290   6.8791   6.8801   7.0061   7.0120
     7.0754   7.0953   7.1322   7.1483   7.2414   7.2696   7.2910   7.2932
     7.3956   7.4019   7.4586   7.4645   7.5389   7.5505   7.6673   7.6693
     7.7557   7.7867   7.8013   7.8611   7.8870   7.9052   8.1044   8.1046
     8.1935   8.2003   8.3365   8.3374   8.5213   8.5229   8.7652   8.7948
     8.8955   8.9124   9.0162   9.0299   9.1494   9.1609   9.3603   9.3693
     9.4016   9.4116   9.4624   9.4765   9.5865   9.5891   9.6751   9.6894
     9.7413   9.7546   9.7935   9.8048   9.8880   9.8908   9.9262   9.9469
    10.0546  10.0726  10.1195  10.1432  10.2609  10.2730  10.2856  10.2910
    10.3873  10.4225  10.5253  10.5436  10.6209  10.6542  10.8602  10.8892
    11.0190  11.0342  11.1665  11.1692  11.2719  11.2986  11.5162  11.5318
    11.7022  11.7121  11.7843  11.7920  11.9523  11.9572  12.0740  12.1003
    12.2618  12.2814  12.3817  12.3885  12.4810  12.5106  12.5883  12.6175
    12.7107  12.7492  12.9036  12.9201  13.0365  13.0542  13.1931  13.2193
    13.2495  13.2565  13.3235  13.3262  13.3802  13.3837  13.4664  13.4726
    13.5172  13.5210  13.6092  13.6146

          k = 0.6000 1.0392 0.0000 ( 38377 PWs)   bands (ev):

    -7.1052  -7.1037  -6.9459  -6.9446  -6.8391  -6.8377  -6.7551  -6.7537
    -6.6852  -6.6838  -6.6258  -6.6244  -6.5743  -6.5729  -6.5282  -6.5268
    -6.4847  -6.4833  -6.4411  -6.4397  -6.3939  -6.3925  -6.3393  -6.3379
    -6.2688  -6.2673  -6.1378  -6.1363  -5.5511  -5.5488  -4.4552  -4.4364
    -4.2702  -4.2507  -4.1497  -4.1296  -4.0556  -4.0346  -3.9690  -3.9465
    -3.8829  -3.8577  -3.8014  -3.7708  -3.7380  -3.7005  -3.6740  -3.6427
    -3.5939  -3.5646  -3.5092  -3.4789  -3.4225  -3.3908  -3.3309  -3.2980
    -3.2209  -3.1878  -2.9733  -2.9462  -1.0202  -0.9179  -0.7894  -0.6858
    -0.6290  -0.5202  -0.4625  -0.3421  -0.2852  -0.1770  -0.1064  -0.0618
    -0.0299   0.0106   0.0621   0.1512   0.1895   0.2061   0.2337   0.2846
     0.3214   0.3751   0.3830   0.4099   0.4435   0.4925   0.5250   0.5351
     0.5983   0.6309   0.6583   0.7170   0.7388   0.7810   0.8300   0.8414
     0.8965   0.9381   0.9700   1.0396   1.0774   1.1593   1.1914   1.2259
     1.2558   1.3464   1.4838   1.5065   1.5688   1.6384   1.7726   1.8113
     1.8984   1.9181   1.9643   2.0773   2.1047   2.1493   2.1880   2.2904
     2.3124   2.4100   2.4596   2.5261   2.6581   2.6991   2.7376   2.8090
     2.9053   2.9576   3.0447   3.0922   3.1620   3.2194   3.3129   3.3703
     3.4183   3.4440   3.5140   3.5478   3.6538   3.7048   3.7625   3.7737
     3.8588   3.8818   4.0428   4.0990   4.1974   4.2908   5.1906   5.2037
     5.4245   5.4424   5.5150   5.5210   5.7151   5.7185   5.8092   5.8292
     5.8525   5.8592   6.0642   6.0779   6.1249   6.1550   6.1740   6.2355
     6.3670   6.4677   6.4830   6.5272   6.7475   6.8015   6.8896   6.9016
     6.9258   6.9528   7.1441   7.2002   7.2563   7.2994   7.3047   7.3416
     7.5331   7.6588   7.7021   7.7447   7.8077   7.8690   7.9642   8.0133
     8.0944   8.1197   8.2135   8.2840   8.3349   8.3407   8.4392   8.5066
     8.5222   8.5638   8.6226   8.6350   8.6507   8.7306   8.7535   8.8293
     8.8580   8.8745   8.9056   8.9425   8.9724   9.0497   9.1315   9.1635
     9.1872   9.2114   9.3168   9.3402   9.3807   9.4318   9.4578   9.4704
     9.5217   9.5363   9.6630   9.6884   9.7438   9.7515   9.8379   9.8660
     9.8719   9.8840  10.0171  10.0214  10.1831  10.1917  10.2559  10.2961
    10.3816  10.4422  10.5772  10.6301  10.7097  10.7428  10.7843  10.8013
    10.8871  10.9044  10.9816  10.9986  11.0495  11.0542  11.1531  11.1696
    11.2060  11.2269  11.3384  11.3517  11.4253  11.4430  11.5780  11.5902
    11.6265  11.6416  11.6876  11.7168  11.7716  11.7835  11.8937  11.9044
    11.9134  11.9438  11.9801  11.9944  12.0248  12.0502  12.0914  12.1098
    12.1672  12.1746  12.1808  12.1958  12.2881  12.2963  12.3301  12.3397
    12.4025  12.4078  12.4581  12.4705  12.5000  12.5098  12.6072  12.6105
    12.6646  12.6879  12.7713  12.7953

          k = 0.6000 1.2702 0.0000 ( 38377 PWs)   bands (ev):

    -7.1052  -7.1037  -6.9459  -6.9446  -6.8391  -6.8377  -6.7551  -6.7537
    -6.6852  -6.6838  -6.6258  -6.6244  -6.5743  -6.5729  -6.5282  -6.5268
    -6.4847  -6.4833  -6.4411  -6.4397  -6.3939  -6.3925  -6.3393  -6.3379
    -6.2688  -6.2673  -6.1378  -6.1363  -5.5511  -5.5488  -4.4552  -4.4364
    -4.2702  -4.2507  -4.1497  -4.1296  -4.0556  -4.0346  -3.9690  -3.9465
    -3.8829  -3.8577  -3.8014  -3.7708  -3.7380  -3.7005  -3.6740  -3.6427
    -3.5939  -3.5646  -3.5092  -3.4789  -3.4225  -3.3908  -3.3309  -3.2980
    -3.2209  -3.1878  -2.9733  -2.9462  -1.0202  -0.9179  -0.7894  -0.6858
    -0.6290  -0.5202  -0.4625  -0.3421  -0.2852  -0.1770  -0.1064  -0.0618
    -0.0299   0.0106   0.0621   0.1512   0.1895   0.2061   0.2337   0.2846
     0.3214   0.3751   0.3830   0.4099   0.4435   0.4925   0.5250   0.5351
     0.5983   0.6309   0.6583   0.7170   0.7388   0.7810   0.8300   0.8414
     0.8965   0.9381   0.9700   1.0396   1.0774   1.1593   1.1914   1.2259
     1.2558   1.3464   1.4838   1.5065   1.5688   1.6384   1.7726   1.8113
     1.8984   1.9181   1.9643   2.0773   2.1047   2.1493   2.1880   2.2904
     2.3124   2.4100   2.4596   2.5261   2.6581   2.6991   2.7376   2.8090
     2.9053   2.9576   3.0447   3.0922   3.1620   3.2194   3.3129   3.3703
     3.4183   3.4440   3.5140   3.5478   3.6538   3.7048   3.7625   3.7737
     3.8588   3.8818   4.0428   4.0990   4.1974   4.2908   5.1906   5.2037
     5.4245   5.4424   5.5150   5.5210   5.7151   5.7185   5.8092   5.8292
     5.8525   5.8592   6.0642   6.0779   6.1249   6.1550   6.1740   6.2355
     6.3670   6.4677   6.4830   6.5272   6.7475   6.8015   6.8896   6.9016
     6.9258   6.9528   7.1441   7.2002   7.2563   7.2994   7.3047   7.3416
     7.5331   7.6588   7.7021   7.7447   7.8077   7.8690   7.9642   8.0133
     8.0944   8.1197   8.2135   8.2840   8.3349   8.3407   8.4392   8.5066
     8.5222   8.5638   8.6226   8.6350   8.6507   8.7306   8.7535   8.8293
     8.8580   8.8745   8.9056   8.9425   8.9724   9.0497   9.1315   9.1635
     9.1872   9.2114   9.3168   9.3402   9.3807   9.4318   9.4578   9.4704
     9.5217   9.5363   9.6630   9.6884   9.7438   9.7515   9.8379   9.8660
     9.8719   9.8840  10.0171  10.0214  10.1831  10.1917  10.2559  10.2961
    10.3816  10.4422  10.5772  10.6301  10.7097  10.7428  10.7843  10.8013
    10.8871  10.9044  10.9816  10.9986  11.0495  11.0542  11.1531  11.1696
    11.2060  11.2269  11.3384  11.3517  11.4253  11.4430  11.5780  11.5902
    11.6265  11.6416  11.6876  11.7168  11.7716  11.7835  11.8937  11.9044
    11.9134  11.9438  11.9801  11.9944  12.0248  12.0502  12.0914  12.1098
    12.1672  12.1746  12.1808  12.1958  12.2881  12.2963  12.3301  12.3397
    12.4025  12.4078  12.4581  12.4705  12.5000  12.5098  12.6072  12.6105
    12.6646  12.6879  12.7713  12.7953

          k = 0.8000 0.4619 0.0000 ( 38217 PWs)   bands (ev):

    -8.5192  -8.5181  -8.3146  -8.3135  -8.1833  -8.1822  -8.0820  -8.0809
    -7.9850  -7.9839  -7.8785  -7.8773  -7.7594  -7.7583  -7.6292  -7.6280
    -7.4899  -7.4887  -7.3444  -7.3433  -7.1956  -7.1945  -7.0448  -7.0437
    -6.8901  -6.8892  -6.7236  -6.7228  -6.3103  -6.3082  -4.1452  -4.1288
    -3.8938  -3.8777  -3.7052  -3.6886  -3.4952  -3.4778  -3.2610  -3.2426
    -3.0143  -2.9951  -2.7663  -2.7464  -2.5260  -2.5058  -2.3006  -2.2809
    -2.0949  -2.0766  -1.9104  -1.8941  -1.7415  -1.7266  -1.5795  -1.5650
    -1.4163  -1.4020  -1.1947  -1.1851   0.3676   0.4727   0.5836   0.6928
     0.7226   0.8363   0.8456   0.9706   0.9778   1.1174   1.1230   1.2561
     1.2913   1.3936   1.4461   1.5327   1.5472   1.6428   1.6744   1.7278
     1.7320   1.8116   1.8438   1.8851   1.9197   1.9469   2.0142   2.0250
     2.0532   2.0788   2.1452   2.1489   2.2106   2.2369   2.2541   2.2660
     2.3669   2.3850   2.4131   2.4225   2.4672   2.4926   2.5434   2.5830
     2.6205   2.6341   2.6673   2.7156   2.7314   2.7835   2.8127   2.8199
     2.8711   2.9231   2.9535   2.9642   3.0129   3.0650   3.0885   3.0980
     3.1129   3.2041   3.2238   3.2314   3.2599   3.3391   3.3643   3.3723
     3.4407   3.4747   3.4753   3.5653   3.6696   3.7641   3.7962   3.8350
     3.8824   3.9105   3.9514   4.0455   4.0960   4.1813   4.2336   4.3133
     4.3958   4.4820   4.6164   4.6971   4.9648   5.0068   5.0182   5.0809
     5.4437   5.4489   5.5988   5.6128   5.6881   5.6921   5.7618   5.7628
     5.8625   5.8637   5.9152   5.9303   6.0444   6.0548   6.0925   6.0979
     6.1493   6.1692   6.2978   6.3002   6.3405   6.3715   6.4012   6.4251
     6.5557   6.5568   6.5728   6.6356   6.6921   6.7082   6.8004   6.8054
     6.8739   6.8882   6.9967   7.0054   7.0536   7.0882   7.1218   7.1552
     7.2132   7.2579   7.2727   7.3067   7.3820   7.4220   7.4770   7.4830
     7.5186   7.5442   7.6455   7.6592   7.7203   7.7429   7.7696   7.7720
     7.8678   7.8685   7.9472   7.9621   7.9963   8.0150   8.0849   8.0934
     8.1864   8.2235   8.2613   8.2628   8.3452   8.4022   8.4820   8.4870
     8.5240   8.5583   8.6244   8.6639   8.7057   8.7065   8.7520   8.7849
     8.9029   8.9428   8.9512   8.9519   9.0229   9.0427   9.0859   9.1160
     9.2154   9.2358   9.2515   9.2743   9.3565   9.3719   9.3987   9.4187
     9.4851   9.5034   9.5641   9.5814   9.6629   9.6695   9.7635   9.7712
     9.9520   9.9574  10.0968  10.0969  10.1975  10.2057  10.3569  10.3663
    10.5098  10.5114  10.6708  10.6721  10.7643  10.7724  10.8042  10.8139
    10.9555  10.9614  10.9893  10.9982  11.0843  11.0944  11.1415  11.1486
    11.1545  11.1640  11.2993  11.3093  11.4044  11.4220  11.4888  11.4977
    11.5321  11.5440  11.7132  11.7230  11.7515  11.7657  11.9220  11.9441
    11.9736  11.9908  12.1664  12.1771

          k = 0.8000 0.6928 0.0000 ( 38217 PWs)   bands (ev):

    -8.5192  -8.5181  -8.3146  -8.3135  -8.1833  -8.1822  -8.0820  -8.0809
    -7.9850  -7.9839  -7.8785  -7.8773  -7.7594  -7.7583  -7.6292  -7.6280
    -7.4899  -7.4887  -7.3444  -7.3433  -7.1956  -7.1945  -7.0448  -7.0437
    -6.8901  -6.8892  -6.7236  -6.7228  -6.3103  -6.3082  -4.1452  -4.1288
    -3.8938  -3.8777  -3.7052  -3.6886  -3.4952  -3.4778  -3.2610  -3.2426
    -3.0143  -2.9951  -2.7663  -2.7464  -2.5260  -2.5058  -2.3006  -2.2809
    -2.0949  -2.0766  -1.9104  -1.8941  -1.7415  -1.7266  -1.5795  -1.5650
    -1.4163  -1.4020  -1.1947  -1.1851   0.3676   0.4727   0.5836   0.6928
     0.7226   0.8363   0.8456   0.9706   0.9778   1.1174   1.1230   1.2561
     1.2913   1.3936   1.4461   1.5327   1.5472   1.6428   1.6744   1.7278
     1.7320   1.8116   1.8438   1.8851   1.9197   1.9469   2.0142   2.0250
     2.0532   2.0788   2.1452   2.1489   2.2106   2.2369   2.2541   2.2660
     2.3669   2.3850   2.4131   2.4225   2.4672   2.4926   2.5434   2.5830
     2.6205   2.6341   2.6673   2.7156   2.7314   2.7835   2.8127   2.8199
     2.8711   2.9231   2.9535   2.9642   3.0129   3.0650   3.0885   3.0980
     3.1129   3.2041   3.2238   3.2314   3.2599   3.3391   3.3643   3.3723
     3.4407   3.4747   3.4753   3.5653   3.6696   3.7641   3.7962   3.8350
     3.8824   3.9105   3.9514   4.0455   4.0960   4.1813   4.2336   4.3133
     4.3958   4.4820   4.6164   4.6971   4.9648   5.0068   5.0182   5.0809
     5.4437   5.4489   5.5988   5.6128   5.6881   5.6921   5.7618   5.7628
     5.8625   5.8637   5.9152   5.9303   6.0444   6.0548   6.0925   6.0979
     6.1493   6.1692   6.2978   6.3002   6.3405   6.3715   6.4012   6.4251
     6.5557   6.5568   6.5728   6.6356   6.6921   6.7082   6.8004   6.8054
     6.8739   6.8882   6.9967   7.0054   7.0536   7.0882   7.1218   7.1552
     7.2132   7.2579   7.2727   7.3067   7.3820   7.4220   7.4770   7.4830
     7.5186   7.5442   7.6455   7.6592   7.7203   7.7429   7.7696   7.7720
     7.8678   7.8685   7.9472   7.9621   7.9963   8.0150   8.0849   8.0934
     8.1864   8.2235   8.2613   8.2628   8.3452   8.4022   8.4820   8.4870
     8.5240   8.5583   8.6244   8.6639   8.7057   8.7065   8.7520   8.7849
     8.9029   8.9428   8.9512   8.9519   9.0229   9.0427   9.0859   9.1160
     9.2154   9.2358   9.2515   9.2743   9.3565   9.3719   9.3987   9.4187
     9.4851   9.5034   9.5641   9.5814   9.6629   9.6695   9.7635   9.7712
     9.9520   9.9574  10.0968  10.0969  10.1975  10.2057  10.3569  10.3663
    10.5098  10.5114  10.6708  10.6721  10.7643  10.7724  10.8042  10.8139
    10.9555  10.9614  10.9893  10.9982  11.0843  11.0944  11.1415  11.1486
    11.1545  11.1640  11.2993  11.3093  11.4044  11.4220  11.4888  11.4977
    11.5321  11.5440  11.7132  11.7230  11.7515  11.7657  11.9220  11.9441
    11.9736  11.9908  12.1664  12.1771

          k = 0.8000 0.9238 0.0000 ( 38305 PWs)   bands (ev):

    -7.8484  -7.8468  -7.6483  -7.6468  -7.5196  -7.5181  -7.4233  -7.4219
    -7.3380  -7.3366  -7.2501  -7.2488  -7.1549  -7.1537  -7.0533  -7.0521
    -6.9471  -6.9462  -6.8379  -6.8370  -6.7254  -6.7247  -6.6089  -6.6083
    -6.4867  -6.4861  -6.3477  -6.3471  -5.8846  -5.8830  -3.8669  -3.8345
    -3.6932  -3.6627  -3.5814  -3.5517  -3.4972  -3.4677  -3.4265  -3.3971
    -3.3632  -3.3359  -3.3002  -3.2773  -3.2315  -3.2114  -3.1578  -3.1389
    -3.0806  -3.0626  -3.0006  -2.9831  -2.9172  -2.9002  -2.8269  -2.8104
    -2.7144  -2.6988  -2.4319  -2.4224  -0.5057  -0.2756  -0.2550  -0.1468
    -0.1168  -0.0239   0.0476   0.0757   0.0977   0.1386   0.2281   0.2448
     0.3087   0.3208   0.3849   0.4531   0.4796   0.5077   0.5717   0.6348
     0.6804   0.7309   0.7796   0.8355   0.8491   0.9325   0.9530   0.9880
     1.0203   1.0661   1.1014   1.1636   1.1737   1.2166   1.2555   1.2885
     1.3203   1.3508   1.4073   1.4089   1.4961   1.5116   1.5764   1.6514
     1.7013   1.8087   1.8945   2.0127   2.0571   2.1308   2.2650   2.2979
     2.3464   2.4126   2.4558   2.5610   2.5861   2.6255   2.6420   2.7622
     2.7901   2.8574   2.8859   2.8959   2.9412   3.0319   3.0978   3.1473
     3.1676   3.1930   3.2539   3.3208   3.3838   3.4513   3.5022   3.5439
     3.5940   3.6440   3.6946   3.7565   3.8485   3.9287   3.9792   4.0414
     4.1096   4.1954   4.2874   4.3536   4.5280   4.6500   5.1321   5.1630
     5.4540   5.4736   5.5957   5.6070   5.7852   5.7892   5.8469   5.8567
     5.9065   5.9272   6.0218   6.0281   6.1675   6.1766   6.2555   6.2760
     6.3030   6.3146   6.4794   6.5068   6.5611   6.5693   6.6926   6.7272
     6.7779   6.8182   6.8937   6.9298   7.0188   7.0852   7.1162   7.1751
     7.2164   7.3091   7.3404   7.3978   7.4749   7.5354   7.6158   7.7284
     7.8188   7.8912   7.9736   8.0500   8.0853   8.1434   8.2000   8.2316
     8.3323   8.3345   8.4502   8.4597   8.5234   8.5533   8.5861   8.6418
     8.6867   8.6920   8.7817   8.7941   8.8516   8.8634   8.8912   8.9339
     8.9805   8.9980   9.0210   9.0435   9.0661   9.0811   9.1281   9.1353
     9.1762   9.1792   9.2227   9.2452   9.2861   9.2972   9.3462   9.3657
     9.3867   9.3911   9.4161   9.4259   9.5019   9.5159   9.5681   9.5893
     9.6308   9.6589   9.6645   9.6889   9.7087   9.7200   9.7987   9.8147
     9.8544   9.8626   9.9287   9.9360   9.9656   9.9894  10.0423  10.0840
    10.1005  10.1641  10.1922  10.2221  10.2568  10.2677  10.3891  10.4366
    10.4706  10.4784  10.6276  10.6875  10.7893  10.8280  10.9460  10.9802
    11.1205  11.1323  11.2747  11.2786  11.5258  11.5268  11.5905  11.6211
    11.6460  11.6561  11.9429  11.9509  12.0401  12.0527  12.3654  12.3762
    12.3856  12.3940  12.6436  12.6526  12.8318  12.8507  12.9718  13.0029
    13.2840  13.2930  13.3600  13.3793

          k = 0.8000 1.1547 0.0000 ( 38377 PWs)   bands (ev):

    -7.1052  -7.1037  -6.9459  -6.9446  -6.8391  -6.8377  -6.7551  -6.7537
    -6.6852  -6.6838  -6.6258  -6.6244  -6.5743  -6.5729  -6.5282  -6.5268
    -6.4847  -6.4833  -6.4411  -6.4397  -6.3939  -6.3925  -6.3393  -6.3379
    -6.2688  -6.2673  -6.1378  -6.1363  -5.5511  -5.5488  -4.4552  -4.4364
    -4.2702  -4.2507  -4.1497  -4.1296  -4.0556  -4.0346  -3.9690  -3.9465
    -3.8829  -3.8577  -3.8014  -3.7708  -3.7380  -3.7005  -3.6740  -3.6427
    -3.5939  -3.5646  -3.5092  -3.4789  -3.4225  -3.3908  -3.3309  -3.2980
    -3.2209  -3.1878  -2.9733  -2.9462  -1.0202  -0.9179  -0.7894  -0.6858
    -0.6290  -0.5202  -0.4625  -0.3421  -0.2852  -0.1770  -0.1064  -0.0618
    -0.0299   0.0106   0.0621   0.1512   0.1895   0.2061   0.2337   0.2846
     0.3214   0.3751   0.3830   0.4099   0.4435   0.4925   0.5250   0.5351
     0.5983   0.6309   0.6583   0.7170   0.7388   0.7810   0.8300   0.8414
     0.8965   0.9381   0.9700   1.0396   1.0774   1.1593   1.1914   1.2259
     1.2558   1.3464   1.4838   1.5065   1.5688   1.6384   1.7726   1.8113
     1.8984   1.9181   1.9643   2.0773   2.1047   2.1493   2.1880   2.2904
     2.3124   2.4100   2.4596   2.5261   2.6581   2.6991   2.7376   2.8090
     2.9053   2.9576   3.0447   3.0922   3.1620   3.2194   3.3129   3.3703
     3.4183   3.4440   3.5140   3.5478   3.6538   3.7048   3.7625   3.7737
     3.8588   3.8818   4.0428   4.0990   4.1974   4.2908   5.1906   5.2037
     5.4245   5.4424   5.5150   5.5210   5.7151   5.7185   5.8092   5.8292
     5.8525   5.8592   6.0642   6.0779   6.1249   6.1550   6.1740   6.2355
     6.3670   6.4677   6.4830   6.5272   6.7475   6.8015   6.8896   6.9016
     6.9258   6.9528   7.1441   7.2002   7.2563   7.2994   7.3047   7.3416
     7.5331   7.6588   7.7021   7.7447   7.8077   7.8690   7.9642   8.0133
     8.0944   8.1197   8.2135   8.2840   8.3349   8.3407   8.4392   8.5066
     8.5222   8.5638   8.6226   8.6350   8.6507   8.7306   8.7535   8.8293
     8.8580   8.8745   8.9056   8.9425   8.9724   9.0497   9.1315   9.1635
     9.1872   9.2114   9.3168   9.3402   9.3807   9.4318   9.4578   9.4704
     9.5217   9.5363   9.6630   9.6884   9.7438   9.7515   9.8379   9.8660
     9.8719   9.8840  10.0171  10.0214  10.1831  10.1917  10.2559  10.2961
    10.3816  10.4422  10.5772  10.6301  10.7097  10.7428  10.7843  10.8013
    10.8871  10.9044  10.9816  10.9986  11.0495  11.0542  11.1531  11.1696
    11.2060  11.2269  11.3384  11.3517  11.4253  11.4430  11.5780  11.5902
    11.6265  11.6416  11.6876  11.7168  11.7716  11.7835  11.8937  11.9044
    11.9134  11.9438  11.9801  11.9944  12.0248  12.0502  12.0914  12.1098
    12.1672  12.1746  12.1808  12.1958  12.2881  12.2963  12.3301  12.3397
    12.4025  12.4078  12.4581  12.4705  12.5000  12.5098  12.6072  12.6105
    12.6646  12.6879  12.7713  12.7953

          k = 0.8000 1.3856 0.0000 ( 38305 PWs)   bands (ev):

    -7.8484  -7.8468  -7.6483  -7.6468  -7.5196  -7.5181  -7.4233  -7.4219
    -7.3380  -7.3366  -7.2501  -7.2488  -7.1549  -7.1537  -7.0533  -7.0521
    -6.9471  -6.9462  -6.8379  -6.8370  -6.7254  -6.7247  -6.6089  -6.6083
    -6.4867  -6.4861  -6.3477  -6.3471  -5.8846  -5.8830  -3.8669  -3.8345
    -3.6932  -3.6627  -3.5814  -3.5517  -3.4972  -3.4677  -3.4265  -3.3971
    -3.3632  -3.3359  -3.3002  -3.2773  -3.2315  -3.2114  -3.1578  -3.1389
    -3.0806  -3.0626  -3.0006  -2.9831  -2.9172  -2.9002  -2.8269  -2.8104
    -2.7144  -2.6988  -2.4319  -2.4224  -0.5057  -0.2756  -0.2550  -0.1468
    -0.1168  -0.0239   0.0476   0.0757   0.0977   0.1386   0.2281   0.2448
     0.3087   0.3208   0.3849   0.4531   0.4796   0.5077   0.5717   0.6348
     0.6804   0.7309   0.7796   0.8355   0.8491   0.9325   0.9530   0.9880
     1.0203   1.0661   1.1014   1.1636   1.1737   1.2166   1.2555   1.2885
     1.3204   1.3508   1.4073   1.4089   1.4961   1.5116   1.5764   1.6514
     1.7013   1.8087   1.8945   2.0127   2.0571   2.1308   2.2650   2.2979
     2.3464   2.4126   2.4558   2.5610   2.5861   2.6255   2.6420   2.7622
     2.7901   2.8574   2.8859   2.8959   2.9412   3.0319   3.0978   3.1473
     3.1676   3.1930   3.2539   3.3208   3.3838   3.4513   3.5022   3.5439
     3.5940   3.6440   3.6946   3.7565   3.8485   3.9287   3.9792   4.0414
     4.1096   4.1954   4.2874   4.3536   4.5280   4.6500   5.1321   5.1630
     5.4540   5.4736   5.5957   5.6070   5.7852   5.7892   5.8469   5.8567
     5.9065   5.9272   6.0218   6.0281   6.1675   6.1766   6.2555   6.2760
     6.3030   6.3146   6.4794   6.5068   6.5611   6.5693   6.6926   6.7272
     6.7779   6.8182   6.8937   6.9298   7.0188   7.0852   7.1162   7.1751
     7.2164   7.3091   7.3404   7.3978   7.4749   7.5354   7.6158   7.7284
     7.8188   7.8912   7.9736   8.0500   8.0853   8.1434   8.2000   8.2316
     8.3323   8.3345   8.4502   8.4597   8.5234   8.5533   8.5861   8.6418
     8.6867   8.6920   8.7817   8.7941   8.8516   8.8634   8.8912   8.9339
     8.9805   8.9980   9.0210   9.0435   9.0661   9.0811   9.1281   9.1353
     9.1762   9.1792   9.2227   9.2452   9.2861   9.2972   9.3462   9.3657
     9.3867   9.3911   9.4161   9.4259   9.5019   9.5159   9.5681   9.5893
     9.6308   9.6589   9.6645   9.6889   9.7087   9.7200   9.7987   9.8147
     9.8544   9.8626   9.9287   9.9360   9.9656   9.9894  10.0423  10.0840
    10.1005  10.1641  10.1922  10.2221  10.2568  10.2677  10.3891  10.4366
    10.4706  10.4784  10.6276  10.6875  10.7893  10.8280  10.9460  10.9802
    11.1205  11.1323  11.2747  11.2786  11.5258  11.5268  11.5905  11.6211
    11.6460  11.6561  11.9429  11.9509  12.0401  12.0527  12.3654  12.3762
    12.3856  12.3940  12.6436  12.6526  12.8318  12.8507  12.9718  13.0029
    13.2840  13.2930  13.3600  13.3793

     Writing output data file GeTe.slab.save/
 
     init_run     :      1.69s CPU      1.82s WALL (       1 calls)
     electrons    :   1788.39s CPU   2949.60s WALL (       1 calls)

     Called by init_run:
     wfcinit      :      0.00s CPU      0.01s WALL (       1 calls)
     wfcinit:atom :      0.18s CPU      0.28s WALL (       2 calls)
     wfcinit:wfcr :     41.75s CPU     47.54s WALL (       2 calls)
     potinit      :      0.55s CPU      0.62s WALL (       1 calls)
     hinit0       :      0.99s CPU      0.99s WALL (       1 calls)

     Called by electrons:
     c_bands      :   1788.30s CPU   2949.34s WALL (       1 calls)
     v_of_rho     :      0.37s CPU      0.42s WALL (       1 calls)
     v_h          :      0.03s CPU      0.04s WALL (       1 calls)
     v_xc         :      0.34s CPU      0.38s WALL (       1 calls)

     Called by c_bands:
     init_us_2    :      0.11s CPU      0.14s WALL (       2 calls)
     cegterg      :   1133.03s CPU   1293.89s WALL (       7 calls)

     Called by sum_band:

     Called by *egterg:
     h_psi        :    588.32s CPU    741.97s WALL (     112 calls)
     g_psi        :      3.47s CPU      3.48s WALL (     103 calls)
     cdiaghg      :    102.41s CPU    111.94s WALL (     105 calls)
     cegterg:over :    220.56s CPU    222.09s WALL (     103 calls)
     cegterg:upda :    154.16s CPU    155.32s WALL (     103 calls)
     cegterg:last :     83.44s CPU     83.53s WALL (      16 calls)

     Called by h_psi:
     h_psi:pot    :    585.15s CPU    737.37s WALL (     112 calls)
     h_psi:calbec :     51.12s CPU     51.32s WALL (     112 calls)
     vloc_psi     :    484.89s CPU    636.48s WALL (     112 calls)
     add_vuspsi   :     49.14s CPU     49.58s WALL (     112 calls)

     General routines
     calbec       :     51.12s CPU     51.31s WALL (     112 calls)
     fft          :      0.38s CPU      0.39s WALL (      14 calls)
     fftw         :    397.56s CPU    547.34s WALL (   54352 calls)
     davcio       :      0.27s CPU      7.71s WALL (       4 calls)
 
     Parallel routines
     fft_scatt_xy :     91.29s CPU    106.13s WALL (   54366 calls)
     fft_scatt_yz :     76.82s CPU     88.88s WALL (   54366 calls)
 
     PWSCF        :  29m59.82s CPU  50m56.59s WALL

 
   This run was terminated on:  17: 3:32   7Oct2019            

=------------------------------------------------------------------------------=
   JOB DONE.
=------------------------------------------------------------------------------=
