
     Program PW2WANNIER v.6.4.1 starts on  7Oct2019 at 15:49:35 

     This program is part of the open-source Quantum ESPRESSO suite
     for quantum simulation of materials; please cite
         "P. Giannozzi et al., J. Phys.:Condens. Matter 21 395502 (2009);
         "P. Giannozzi et al., J. Phys.:Condens. Matter 29 465901 (2017);
          URL http://www.quantum-espresso.org", 
     in publications or presentations arising from this work. More details at
     http://www.quantum-espresso.org/quote

     Parallel version (MPI), running on    16 processors

     MPI processes distributed on     1 nodes
     R & G space division:  proc/nbgrp/npool/nimage =      16
 
  Reading nscf_save data

     Reading data from directory:
     temp/GeTe.bulk.save/
     Message from routine pw_read_schema:
     failed retrieving input info from xml file, please check it

     IMPORTANT: XC functional enforced from input :
     Exchange-correlation= PBESOL
                           (   1   4  10   8   0   0   0)
     Any further DFT definition will be discarded
     Please, verify this is what you really want

 
     Parallelization info
     --------------------
     sticks:   dense  smooth     PW     G-vecs:    dense   smooth      PW
     Min          52      52     18                 3168     3168     656
     Max          53      53     19                 3185     3185     665
     Sum         847     847    301                50927    50927   10589
 

     Check: negative core charge=   -0.000004
 
  Spin CASE ( non-collinear )
 
  Wannier mode is: standalone     
 
  -----------------
  *** Reading nnkp 
  -----------------
 
  Checking info from wannier.nnkp file
 
  - Real lattice is ok
  - Reciprocal lattice is ok
  - K-points are ok
  - Number of wannier functions is ok ( 48)
  - All guiding functions are given 
 
 Projections:
    0.499995   -0.288672    1.017912  0  1  1    1.000000
    0.499995   -0.288672    1.017912  0  1  1    1.000000
    0.499995   -0.288672    1.017912  1  1  1    1.000000
    0.499995   -0.288672    1.017912  1  1  1    1.000000
    0.499995   -0.288672    1.017912  1  2  1    1.000000
    0.499995   -0.288672    1.017912  1  2  1    1.000000
    0.499995   -0.288672    1.017912  1  3  1    1.000000
    0.499995   -0.288672    1.017912  1  3  1    1.000000
   -0.499995    0.288672    0.654163  0  1  1    1.000000
   -0.499995    0.288672    0.654163  0  1  1    1.000000
   -0.499995    0.288672    0.654163  1  1  1    1.000000
   -0.499995    0.288672    0.654163  1  1  1    1.000000
   -0.499995    0.288672    0.654163  1  2  1    1.000000
   -0.499995    0.288672    0.654163  1  2  1    1.000000
   -0.499995    0.288672    0.654163  1  3  1    1.000000
   -0.499995    0.288672    0.654163  1  3  1    1.000000
    0.000000    0.000000    0.181887  0  1  1    1.000000
    0.000000    0.000000    0.181887  0  1  1    1.000000
    0.000000    0.000000    0.181887  1  1  1    1.000000
    0.000000    0.000000    0.181887  1  1  1    1.000000
    0.000000    0.000000    0.181887  1  2  1    1.000000
    0.000000    0.000000    0.181887  1  2  1    1.000000
    0.000000    0.000000    0.181887  1  3  1    1.000000
    0.000000    0.000000    0.181887  1  3  1    1.000000
    0.499995   -0.288672   -0.181887  0  1  1    1.000000
    0.499995   -0.288672   -0.181887  0  1  1    1.000000
    0.499995   -0.288672   -0.181887  1  1  1    1.000000
    0.499995   -0.288672   -0.181887  1  1  1    1.000000
    0.499995   -0.288672   -0.181887  1  2  1    1.000000
    0.499995   -0.288672   -0.181887  1  2  1    1.000000
    0.499995   -0.288672   -0.181887  1  3  1    1.000000
    0.499995   -0.288672   -0.181887  1  3  1    1.000000
   -0.499995    0.288672   -0.654163  0  1  1    1.000000
   -0.499995    0.288672   -0.654163  0  1  1    1.000000
   -0.499995    0.288672   -0.654163  1  1  1    1.000000
   -0.499995    0.288672   -0.654163  1  1  1    1.000000
   -0.499995    0.288672   -0.654163  1  2  1    1.000000
   -0.499995    0.288672   -0.654163  1  2  1    1.000000
   -0.499995    0.288672   -0.654163  1  3  1    1.000000
   -0.499995    0.288672   -0.654163  1  3  1    1.000000
    0.000000    0.000000   -1.017912  0  1  1    1.000000
    0.000000    0.000000   -1.017912  0  1  1    1.000000
    0.000000    0.000000   -1.017912  1  1  1    1.000000
    0.000000    0.000000   -1.017912  1  1  1    1.000000
    0.000000    0.000000   -1.017912  1  2  1    1.000000
    0.000000    0.000000   -1.017912  1  2  1    1.000000
    0.000000    0.000000   -1.017912  1  3  1    1.000000
    0.000000    0.000000   -1.017912  1  3  1    1.000000
 
  Reading data about k-point neighbours 
 
  All neighbours are found 
 
  Opening pp-files 
 
 
  --------------------------
  *** Compute  A projections
  --------------------------
 
  AMN: iknum =       75
       1       2       3       4       5       6       7       8       9      10
      11      12      13      14      15      16      17      18      19      20
      21      22      23      24      25      26      27      28      29      30
      31      32      33      34      35      36      37      38      39      40
      41      42      43      44      45      46      47      48      49      50
      51      52      53      54      55      56      57      58      59      60
      61      62      63      64      65      66      67      68      69      70
      71      72      73      74      75

  AMN calculated
 
  ---------------
  *** Compute  M 
  ---------------
 
  MMN: iknum =       75
       1       2       3       4       5       6       7       8       9      10
      11      12      13      14      15      16      17      18      19      20
      21      22      23      24      25      26      27      28      29      30
      31      32      33      34      35      36      37      38      39      40
      41      42      43      44      45      46      47      48      49      50
      51      52      53      54      55      56      57      58      59      60
      61      62      63      64      65      66      67      68      69      70
      71      72      73      74      75

  MMN calculated
 
  ------------------
  *** Compute  Spin 
  ------------------
 
 iknum =       75
       1
       2
       3
       4
       5
       6
       7
       8
       9
      10
      11
      12
      13
      14
      15
      16
      17
      18
      19
      20
      21
      22
      23
      24
      25
      26
      27
      28
      29
      30
      31
      32
      33
      34
      35
      36
      37
      38
      39
      40
      41
      42
      43
      44
      45
      46
      47
      48
      49
      50
      51
      52
      53
      54
      55
      56
      57
      58
      59
      60
      61
      62
      63
      64
      65
      66
      67
      68
      69
      70
      71
      72
      73
      74
      75
 
  SPIN calculated
 
  -----------------------------------
  *** Orbital terms are not computed 
  -----------------------------------
 
  ----------------
  *** Write bands 
  ----------------
 
 
  -----------------------------
  *** Plot info is not printed 
  -----------------------------
 
  -----------------------------
  *** Parity info is not printed 
  -----------------------------
 
  ------------
  *** Stop pp 
  ------------
 
 
     init_pw2wan  :      4.68s CPU     13.09s WALL (       1 calls)
     compute_amn  :     34.72s CPU     38.62s WALL (       1 calls)
     compute_mmn  :     18.47s CPU     27.85s WALL (       1 calls)
 
     PW2WANNIER   :     59.83s CPU   1m22.61s WALL

 
   This run was terminated on:  15:50:58   7Oct2019            

=------------------------------------------------------------------------------=
   JOB DONE.
=------------------------------------------------------------------------------=
 
