
     Program PWSCF v.6.4.1 starts on  7Oct2019 at 15:55:26 

     This program is part of the open-source Quantum ESPRESSO suite
     for quantum simulation of materials; please cite
         "P. Giannozzi et al., J. Phys.:Condens. Matter 21 395502 (2009);
         "P. Giannozzi et al., J. Phys.:Condens. Matter 29 465901 (2017);
          URL http://www.quantum-espresso.org", 
     in publications or presentations arising from this work. More details at
     http://www.quantum-espresso.org/quote

     Parallel version (MPI), running on    48 processors

     MPI processes distributed on     3 nodes
     K-points division:     npool     =       8
     R & G space division:  proc/nbgrp/npool/nimage =       6
     Waiting for input...
     Reading input from standard input

     Current dimensions of program PWSCF are:
     Max number of different atomic species (ntypx) = 10
     Max number of k-points (npk) =  40000
     Max angular momentum in pseudopotentials (lmaxx) =  3

     Subspace diagonalization in iterative solution of the eigenvalue problem:
     a serial algorithm will be used

 
     Parallelization info
     --------------------
     sticks:   dense  smooth     PW     G-vecs:    dense   smooth      PW
     Min         141     141     41                51009    51009    7780
     Max         142     142     43                51104    51104    7799
     Sum         847     847    253               306169   306169   46749
 


     bravais-lattice index     =            4
     lattice parameter (alat)  =       7.8948  a.u.
     unit-cell volume          =    6412.8359 (a.u.)^3
     number of atoms/cell      =           30
     number of atomic types    =            2
     number of electrons       =       150.00
     number of Kohn-Sham states=          180
     kinetic-energy cutoff     =      50.0000  Ry
     charge density cutoff     =     200.0000  Ry
     convergence threshold     =      1.0E-08
     mixing beta               =       0.1000
     number of iterations used =            8  local-TF  mixing
     Exchange-correlation= PBESOL
                           (   1   4  10   8   0   0   0)
     Non magnetic calculation with spin-orbit


     celldm(1)=   7.894800  celldm(2)=   0.000000  celldm(3)=  15.048600
     celldm(4)=   0.000000  celldm(5)=   0.000000  celldm(6)=   0.000000

     crystal axes: (cart. coord. in units of alat)
               a(1) = (   1.000000   0.000000   0.000000 )  
               a(2) = (  -0.500000   0.866025   0.000000 )  
               a(3) = (   0.000000   0.000000  15.048600 )  

     reciprocal axes: (cart. coord. in units 2 pi/alat)
               b(1) = (  1.000000  0.577350  0.000000 )  
               b(2) = (  0.000000  1.154701  0.000000 )  
               b(3) = (  0.000000  0.000000  0.066451 )  


     PseudoPot. # 1 for Ge read from file:
     ../pseudo/Ge.rel-pbesol-n-nc.UPF
     MD5 check sum: 5d120bc42c09b8e9caae97d8f4be7bef
     Pseudo is Norm-conserving + core correction, Zval =  4.0
     Generated using "atomic" code by A. Dal Corso v.5.0.99 svn rev. 10869
     Using radial grid of 1207 points,  3 beta functions with: 
                l(1) =   0
                l(2) =   1
                l(3) =   1

     PseudoPot. # 2 for Te read from file:
     ../pseudo/Te.rel-pbesol-n-nc.UPF
     MD5 check sum: 9ea082b7414589e9c5af18756b6648f4
     Pseudo is Norm-conserving + core correction, Zval =  6.0
     Generated using "atomic" code by A. Dal Corso v.5.0.99 svn rev. 10869
     Using radial grid of 1245 points,  4 beta functions with: 
                l(1) =   1
                l(2) =   1
                l(3) =   2
                l(4) =   2

     atomic species   valence    mass     pseudopotential
        Ge             4.00    72.61000     Ge( 1.00)
        Te             6.00   127.60000     Te( 1.00)

      6 Sym. Ops. (no inversion) found



   Cartesian axes

     site n.     atom                  positions (alat units)
         1           Ge  tau(   1) = (   0.4999999  -0.2886751   6.0341124  )
         2           Te  tau(   2) = (  -0.4999999   0.2886751   5.6703546  )
         3           Ge  tau(   3) = (   0.0000000   0.0000000   5.1980799  )
         4           Te  tau(   4) = (   0.4999999  -0.2886751   4.8343206  )
         5           Ge  tau(   5) = (  -0.4999999   0.2886751   4.3620459  )
         6           Te  tau(   6) = (   0.0000000   0.0000000   3.9982866  )
         7           Ge  tau(   7) = (   0.4999999  -0.2886751   3.5260134  )
         8           Te  tau(   8) = (  -0.4999999   0.2886751   3.1622541  )
         9           Ge  tau(   9) = (   0.0000000   0.0000000   2.6899794  )
        10           Te  tau(  10) = (   0.4999999  -0.2886751   2.3262201  )
        11           Ge  tau(  11) = (  -0.4999999   0.2886751   1.8539469  )
        12           Te  tau(  12) = (   0.0000000   0.0000000   1.4901876  )
        13           Ge  tau(  13) = (   0.4999999  -0.2886751   1.0179129  )
        14           Te  tau(  14) = (  -0.4999999   0.2886751   0.6541536  )
        15           Ge  tau(  15) = (   0.0000000   0.0000000   0.1818789  )
        16           Te  tau(  16) = (   0.4999999  -0.2886751  -0.1818789  )
        17           Ge  tau(  17) = (  -0.4999999   0.2886751  -0.6541536  )
        18           Te  tau(  18) = (   0.0000000   0.0000000  -1.0179129  )
        19           Ge  tau(  19) = (   0.4999999  -0.2886751  -1.4901876  )
        20           Te  tau(  20) = (  -0.4999999   0.2886751  -1.8539469  )
        21           Ge  tau(  21) = (   0.0000000   0.0000000  -2.3262201  )
        22           Te  tau(  22) = (   0.4999999  -0.2886751  -2.6899794  )
        23           Ge  tau(  23) = (  -0.4999999   0.2886751  -3.1622541  )
        24           Te  tau(  24) = (   0.0000000   0.0000000  -3.5260134  )
        25           Ge  tau(  25) = (   0.4999999  -0.2886751  -3.9982866  )
        26           Te  tau(  26) = (  -0.4999999   0.2886751  -4.3620459  )
        27           Ge  tau(  27) = (   0.0000000   0.0000000  -4.8343206  )
        28           Te  tau(  28) = (   0.4999999  -0.2886751  -5.1980799  )
        29           Ge  tau(  29) = (  -0.4999999   0.2886751  -5.6703546  )
        30           Te  tau(  30) = (   0.0000000   0.0000000  -6.0341124  )

     number of k points=     8  Marzari-Vanderbilt smearing, width (Ry)=  0.0200
                       cart. coord. in units 2pi/alat
        k(    1) = (   0.0000000   0.0000000   0.0000000), wk =   0.0204082
        k(    2) = (   0.0000000   0.1649572   0.0000000), wk =   0.1224490
        k(    3) = (   0.0000000   0.3299144   0.0000000), wk =   0.1224490
        k(    4) = (   0.0000000   0.4948717   0.0000000), wk =   0.1224490
        k(    5) = (   0.1428571   0.2474358   0.0000000), wk =   0.1224490
        k(    6) = (   0.1428571   0.4123930   0.0000000), wk =   0.2448980
        k(    7) = (   0.1428571   0.5773503   0.0000000), wk =   0.1224490
        k(    8) = (   0.2857143   0.4948717   0.0000000), wk =   0.1224490

     Dense  grid:   306169 G-vectors     FFT dimensions: (  36,  36, 540)

     Estimated max dynamical RAM per process >     467.00 MB

     Estimated total dynamical RAM >      21.89 GB

     Check: negative core charge=   -0.000005

     Initial potential from superposition of free atoms

     starting charge  149.98722, renormalised to  150.00000

     negative rho (up, down):  2.932E-06 0.000E+00
     Starting wfcs are  240 randomized atomic wfcs

     total cpu time spent up to now is        9.9 secs

     Self-consistent Calculation

     iteration #  1     ecut=    50.00 Ry     beta= 0.10
     Davidson diagonalization with overlap
     ethr =  1.00E-02,  avg # of iterations =  3.0

     Threshold (ethr) on eigenvalues was too large:
     Diagonalizing with lowered threshold

     Davidson diagonalization with overlap
     ethr =  5.70E-04,  avg # of iterations =  3.1

     total cpu time spent up to now is       69.8 secs

     total energy              =    -552.39205879 Ry
     Harris-Foulkes estimate   =    -552.39479769 Ry
     estimated scf accuracy    <       0.86661516 Ry

     iteration #  2     ecut=    50.00 Ry     beta= 0.10
     Davidson diagonalization with overlap
     ethr =  5.78E-04,  avg # of iterations =  1.0

     total cpu time spent up to now is       86.7 secs

     total energy              =    -552.36894494 Ry
     Harris-Foulkes estimate   =    -552.40025045 Ry
     estimated scf accuracy    <       0.84435762 Ry

     iteration #  3     ecut=    50.00 Ry     beta= 0.10
     Davidson diagonalization with overlap
     ethr =  5.63E-04,  avg # of iterations =  1.0

     total cpu time spent up to now is      103.5 secs

     total energy              =    -552.37742061 Ry
     Harris-Foulkes estimate   =    -552.37880073 Ry
     estimated scf accuracy    <       0.42003618 Ry

     iteration #  4     ecut=    50.00 Ry     beta= 0.10
     Davidson diagonalization with overlap
     ethr =  2.80E-04,  avg # of iterations =  1.0

     total cpu time spent up to now is      120.4 secs

     total energy              =    -552.37670179 Ry
     Harris-Foulkes estimate   =    -552.38037118 Ry
     estimated scf accuracy    <       0.28134236 Ry

     iteration #  5     ecut=    50.00 Ry     beta= 0.10
     Davidson diagonalization with overlap
     ethr =  1.88E-04,  avg # of iterations =  1.0

     total cpu time spent up to now is      137.3 secs

     total energy              =    -552.38196151 Ry
     Harris-Foulkes estimate   =    -552.37941514 Ry
     estimated scf accuracy    <       0.26867812 Ry

     iteration #  6     ecut=    50.00 Ry     beta= 0.10
     Davidson diagonalization with overlap
     ethr =  1.79E-04,  avg # of iterations =  1.0

     total cpu time spent up to now is      154.1 secs

     total energy              =    -552.38009811 Ry
     Harris-Foulkes estimate   =    -552.38315947 Ry
     estimated scf accuracy    <       0.43067746 Ry

     iteration #  7     ecut=    50.00 Ry     beta= 0.10
     Davidson diagonalization with overlap
     ethr =  1.79E-04,  avg # of iterations =  1.0

     negative rho (up, down):  1.523E-03 0.000E+00

     total cpu time spent up to now is      173.2 secs

     total energy              =    -552.37524716 Ry
     Harris-Foulkes estimate   =    -552.38091385 Ry
     estimated scf accuracy    <       0.30369705 Ry

     iteration #  8     ecut=    50.00 Ry     beta= 0.10
     Davidson diagonalization with overlap
     ethr =  1.79E-04,  avg # of iterations =  1.0

     negative rho (up, down):  4.740E-05 0.000E+00

     total cpu time spent up to now is      192.6 secs

     total energy              =    -552.37775419 Ry
     Harris-Foulkes estimate   =    -552.37867104 Ry
     estimated scf accuracy    <       0.00917971 Ry

     iteration #  9     ecut=    50.00 Ry     beta= 0.10
     Davidson diagonalization with overlap
     ethr =  6.12E-06,  avg # of iterations = 11.1

     total cpu time spent up to now is      224.6 secs

     total energy              =    -552.37780476 Ry
     Harris-Foulkes estimate   =    -552.37917803 Ry
     estimated scf accuracy    <       0.00524676 Ry

     iteration # 10     ecut=    50.00 Ry     beta= 0.10
     Davidson diagonalization with overlap
     ethr =  3.50E-06,  avg # of iterations = 12.4

     negative rho (up, down):  9.872E-04 0.000E+00

     total cpu time spent up to now is      250.6 secs

     total energy              =    -552.37724452 Ry
     Harris-Foulkes estimate   =    -552.37915310 Ry
     estimated scf accuracy    <       0.07488902 Ry

     iteration # 11     ecut=    50.00 Ry     beta= 0.10
     Davidson diagonalization with overlap
     ethr =  3.50E-06,  avg # of iterations = 14.0

     negative rho (up, down):  8.279E-04 0.000E+00

     total cpu time spent up to now is      277.1 secs

     total energy              =    -552.37841077 Ry
     Harris-Foulkes estimate   =    -552.37846628 Ry
     estimated scf accuracy    <       0.00590217 Ry

     iteration # 12     ecut=    50.00 Ry     beta= 0.10
     Davidson diagonalization with overlap
     ethr =  3.50E-06,  avg # of iterations =  1.2

     negative rho (up, down):  4.145E-04 0.000E+00

     total cpu time spent up to now is      297.9 secs

     total energy              =    -552.37840231 Ry
     Harris-Foulkes estimate   =    -552.37846349 Ry
     estimated scf accuracy    <       0.00219354 Ry

     iteration # 13     ecut=    50.00 Ry     beta= 0.10
     Davidson diagonalization with overlap
     ethr =  1.46E-06,  avg # of iterations =  3.0

     total cpu time spent up to now is      317.7 secs

     total energy              =    -552.37840141 Ry
     Harris-Foulkes estimate   =    -552.37844926 Ry
     estimated scf accuracy    <       0.00034652 Ry

     iteration # 14     ecut=    50.00 Ry     beta= 0.10
     Davidson diagonalization with overlap
     ethr =  2.31E-07,  avg # of iterations =  5.1

     total cpu time spent up to now is      342.3 secs

     total energy              =    -552.37847590 Ry
     Harris-Foulkes estimate   =    -552.37848523 Ry
     estimated scf accuracy    <       0.00013958 Ry

     iteration # 15     ecut=    50.00 Ry     beta= 0.10
     Davidson diagonalization with overlap
     ethr =  9.31E-08,  avg # of iterations =  1.1

     total cpu time spent up to now is      359.7 secs

     total energy              =    -552.37846637 Ry
     Harris-Foulkes estimate   =    -552.37847915 Ry
     estimated scf accuracy    <       0.00009448 Ry

     iteration # 16     ecut=    50.00 Ry     beta= 0.10
     Davidson diagonalization with overlap
     ethr =  6.30E-08,  avg # of iterations =  1.8

     total cpu time spent up to now is      377.3 secs

     total energy              =    -552.37846940 Ry
     Harris-Foulkes estimate   =    -552.37847091 Ry
     estimated scf accuracy    <       0.00003034 Ry

     iteration # 17     ecut=    50.00 Ry     beta= 0.10
     Davidson diagonalization with overlap
     ethr =  2.02E-08,  avg # of iterations =  4.4

     total cpu time spent up to now is      398.1 secs

     total energy              =    -552.37847129 Ry
     Harris-Foulkes estimate   =    -552.37847136 Ry
     estimated scf accuracy    <       0.00000982 Ry

     iteration # 18     ecut=    50.00 Ry     beta= 0.10
     Davidson diagonalization with overlap
     ethr =  6.55E-09,  avg # of iterations =  3.8

     total cpu time spent up to now is      420.0 secs

     total energy              =    -552.37847273 Ry
     Harris-Foulkes estimate   =    -552.37847289 Ry
     estimated scf accuracy    <       0.00002169 Ry

     iteration # 19     ecut=    50.00 Ry     beta= 0.10
     Davidson diagonalization with overlap
     ethr =  6.55E-09,  avg # of iterations =  1.5

     total cpu time spent up to now is      437.8 secs

     total energy              =    -552.37847204 Ry
     Harris-Foulkes estimate   =    -552.37847315 Ry
     estimated scf accuracy    <       0.00001684 Ry

     iteration # 20     ecut=    50.00 Ry     beta= 0.10
     Davidson diagonalization with overlap
     ethr =  6.55E-09,  avg # of iterations =  1.5

     total cpu time spent up to now is      455.7 secs

     total energy              =    -552.37847251 Ry
     Harris-Foulkes estimate   =    -552.37847258 Ry
     estimated scf accuracy    <       0.00000299 Ry

     iteration # 21     ecut=    50.00 Ry     beta= 0.10
     Davidson diagonalization with overlap
     ethr =  1.99E-09,  avg # of iterations =  4.4

     negative rho (up, down):  2.963E-07 0.000E+00

     total cpu time spent up to now is      489.6 secs

     total energy              =    -552.37847289 Ry
     Harris-Foulkes estimate   =    -552.37847287 Ry
     estimated scf accuracy    <       0.00000267 Ry

     iteration # 22     ecut=    50.00 Ry     beta= 0.10
     Davidson diagonalization with overlap
     ethr =  1.78E-09,  avg # of iterations =  1.1

     total cpu time spent up to now is      507.3 secs

     total energy              =    -552.37847274 Ry
     Harris-Foulkes estimate   =    -552.37847299 Ry
     estimated scf accuracy    <       0.00000299 Ry

     iteration # 23     ecut=    50.00 Ry     beta= 0.10
     Davidson diagonalization with overlap
     ethr =  1.78E-09,  avg # of iterations =  2.9

     total cpu time spent up to now is      525.8 secs

     total energy              =    -552.37847268 Ry
     Harris-Foulkes estimate   =    -552.37847299 Ry
     estimated scf accuracy    <       0.00000133 Ry

     iteration # 24     ecut=    50.00 Ry     beta= 0.10
     Davidson diagonalization with overlap
     ethr =  8.86E-10,  avg # of iterations =  3.0

     total cpu time spent up to now is      547.9 secs

     total energy              =    -552.37847291 Ry
     Harris-Foulkes estimate   =    -552.37847291 Ry
     estimated scf accuracy    <       0.00000021 Ry

     iteration # 25     ecut=    50.00 Ry     beta= 0.10
     Davidson diagonalization with overlap
     ethr =  1.42E-10,  avg # of iterations =  3.4

     total cpu time spent up to now is      573.2 secs

     total energy              =    -552.37847292 Ry
     Harris-Foulkes estimate   =    -552.37847293 Ry
     estimated scf accuracy    <       0.00000019 Ry

     iteration # 26     ecut=    50.00 Ry     beta= 0.10
     Davidson diagonalization with overlap
     ethr =  1.28E-10,  avg # of iterations =  1.0

     total cpu time spent up to now is      590.9 secs

     total energy              =    -552.37847291 Ry
     Harris-Foulkes estimate   =    -552.37847292 Ry
     estimated scf accuracy    <       0.00000017 Ry

     iteration # 27     ecut=    50.00 Ry     beta= 0.10
     Davidson diagonalization with overlap
     ethr =  1.11E-10,  avg # of iterations =  1.0

     total cpu time spent up to now is      608.8 secs

     total energy              =    -552.37847291 Ry
     Harris-Foulkes estimate   =    -552.37847292 Ry
     estimated scf accuracy    <       0.00000012 Ry

     iteration # 28     ecut=    50.00 Ry     beta= 0.10
     Davidson diagonalization with overlap
     ethr =  8.30E-11,  avg # of iterations =  1.1

     total cpu time spent up to now is      626.7 secs

     total energy              =    -552.37847291 Ry
     Harris-Foulkes estimate   =    -552.37847292 Ry
     estimated scf accuracy    <       0.00000011 Ry

     iteration # 29     ecut=    50.00 Ry     beta= 0.10
     Davidson diagonalization with overlap
     ethr =  7.65E-11,  avg # of iterations =  1.0

     total cpu time spent up to now is      644.4 secs

     total energy              =    -552.37847291 Ry
     Harris-Foulkes estimate   =    -552.37847292 Ry
     estimated scf accuracy    <       0.00000011 Ry

     iteration # 30     ecut=    50.00 Ry     beta= 0.10
     Davidson diagonalization with overlap
     ethr =  7.02E-11,  avg # of iterations =  2.6

     total cpu time spent up to now is      663.7 secs

     total energy              =    -552.37847291 Ry
     Harris-Foulkes estimate   =    -552.37847292 Ry
     estimated scf accuracy    <       0.00000003 Ry

     iteration # 31     ecut=    50.00 Ry     beta= 0.10
     Davidson diagonalization with overlap
     ethr =  2.25E-11,  avg # of iterations =  4.1

     total cpu time spent up to now is      688.2 secs

     total energy              =    -552.37847291 Ry
     Harris-Foulkes estimate   =    -552.37847291 Ry
     estimated scf accuracy    <       0.00000003 Ry

     iteration # 32     ecut=    50.00 Ry     beta= 0.10
     Davidson diagonalization with overlap
     ethr =  1.82E-11,  avg # of iterations =  1.0

     total cpu time spent up to now is      706.0 secs

     total energy              =    -552.37847291 Ry
     Harris-Foulkes estimate   =    -552.37847291 Ry
     estimated scf accuracy    <       0.00000002 Ry

     iteration # 33     ecut=    50.00 Ry     beta= 0.10
     Davidson diagonalization with overlap
     ethr =  1.63E-11,  avg # of iterations =  1.0

     total cpu time spent up to now is      723.9 secs

     total energy              =    -552.37847291 Ry
     Harris-Foulkes estimate   =    -552.37847291 Ry
     estimated scf accuracy    <       0.00000002 Ry

     iteration # 34     ecut=    50.00 Ry     beta= 0.10
     Davidson diagonalization with overlap
     ethr =  1.54E-11,  avg # of iterations =  1.0

     total cpu time spent up to now is      741.6 secs

     total energy              =    -552.37847291 Ry
     Harris-Foulkes estimate   =    -552.37847291 Ry
     estimated scf accuracy    <       0.00000002 Ry

     iteration # 35     ecut=    50.00 Ry     beta= 0.10
     Davidson diagonalization with overlap
     ethr =  1.40E-11,  avg # of iterations =  1.0

     total cpu time spent up to now is      759.3 secs

     total energy              =    -552.37847291 Ry
     Harris-Foulkes estimate   =    -552.37847291 Ry
     estimated scf accuracy    <       0.00000002 Ry

     iteration # 36     ecut=    50.00 Ry     beta= 0.10
     Davidson diagonalization with overlap
     ethr =  1.24E-11,  avg # of iterations =  1.5

     total cpu time spent up to now is      777.1 secs

     total energy              =    -552.37847291 Ry
     Harris-Foulkes estimate   =    -552.37847291 Ry
     estimated scf accuracy    <       0.00000001 Ry

     iteration # 37     ecut=    50.00 Ry     beta= 0.10
     Davidson diagonalization with overlap
     ethr =  7.80E-12,  avg # of iterations =  1.4

     total cpu time spent up to now is      793.1 secs

     End of self-consistent calculation

          k = 0.0000 0.0000 0.0000 ( 38253 PWs)   bands (ev):

    -8.8890  -8.8890  -8.6817  -8.6817  -8.5485  -8.5485  -8.4450  -8.4450
    -8.3439  -8.3439  -8.2310  -8.2310  -8.1040  -8.1040  -7.9640  -7.9640
    -7.8128  -7.8128  -7.6535  -7.6535  -7.4898  -7.4898  -7.3244  -7.3244
    -7.1558  -7.1558  -6.9765  -6.9765  -6.5781  -6.5781  -4.4045  -4.4045
    -4.1326  -4.1326  -3.9051  -3.9051  -3.6339  -3.6339  -3.3226  -3.3226
    -2.9826  -2.9826  -2.6232  -2.6232  -2.2517  -2.2517  -1.8751  -1.8751
    -1.5014  -1.5014  -1.1410  -1.1410  -0.8057  -0.8057  -0.5053  -0.5053
    -0.2363  -0.2363   0.0284   0.0284   2.1217   2.1217   2.2807   2.2807
     2.3845   2.3845   2.4676   2.4676   2.5370   2.5370   2.5981   2.5981
     2.6551   2.6551   2.7099   2.7099   2.7643   2.7643   2.8033   2.8033
     2.8199   2.8199   2.8786   2.8786   2.9349   2.9349   2.9430   2.9430
     2.9657   2.9657   3.0187   3.0187   3.0348   3.0348   3.1170   3.1170
     3.1407   3.1407   3.1856   3.1856   3.2019   3.2019   3.2447   3.2447
     3.2966   3.2966   3.3444   3.3444   3.3509   3.3509   3.3908   3.3908
     3.4401   3.4401   3.4793   3.4793   3.4962   3.4962   3.5616   3.5616
     3.5827   3.5827   3.6402   3.6402   3.6689   3.6689   3.7675   3.7675
     3.7803   3.7803   3.8947   3.8947   4.0027   4.0027   4.1044   4.1044
     4.2018   4.2018   4.2976   4.2976   4.3558   4.3558   4.3948   4.3948
     4.4974   4.4974   4.5133   4.5133   4.6196   4.6196   4.9535   4.9535
     4.9686   4.9686   5.1238   5.1238   5.1862   5.1862   5.3377   5.3377
     5.3570   5.3570   5.4892   5.4892   5.5216   5.5216   5.5716   5.5716
     5.6738   5.6738   5.6985   5.6985   5.7829   5.7829   5.8741   5.8741
     5.9054   5.9054   5.9480   5.9480

          k = 0.0000 0.1650 0.0000 ( 38167 PWs)   bands (ev):

    -8.6994  -8.6985  -8.4926  -8.4918  -8.3597  -8.3588  -8.2571  -8.2563
    -8.1581  -8.1572  -8.0483  -8.0474  -7.9251  -7.9242  -7.7898  -7.7889
    -7.6443  -7.6434  -7.4917  -7.4908  -7.3352  -7.3342  -7.1767  -7.1758
    -7.0147  -7.0138  -6.8414  -6.8405  -6.4372  -6.4354  -4.2647  -4.2542
    -4.0010  -3.9907  -3.7921  -3.7812  -3.5495  -3.5378  -3.2741  -3.2613
    -2.9781  -2.9641  -2.6726  -2.6572  -2.3672  -2.3505  -2.0712  -2.0534
    -1.7938  -1.7755  -1.5438  -1.5259  -1.3239  -1.3072  -1.1257  -1.1094
    -0.9351  -0.9186  -0.7118  -0.6983   1.0228   1.1308   1.2287   1.3439
     1.3581   1.4565   1.4798   1.5437   1.5916   1.6293   1.6987   1.7209
     1.7752   1.8120   1.8670   1.9002   1.9491   1.9881   2.0121   2.0783
     2.0890   2.0983   2.1454   2.1914   2.2090   2.2645   2.2717   2.2983
     2.3569   2.3831   2.3974   2.4143   2.4782   2.4924   2.5111   2.5484
     2.5776   2.5924   2.6525   2.6644   2.7535   2.7596   2.7944   2.8140
     2.8669   2.8822   2.9622   2.9722   3.0384   3.0554   3.0990   3.1037
     3.1426   3.2055   3.2302   3.2579   3.3037   3.3136   3.3416   3.4218
     3.4220   3.4536   3.4540   3.4981   3.5525   3.5856   3.5946   3.6548
     3.6909   3.7720   3.7891   3.8808   3.9067   3.9288   3.9679   4.0116
     4.0289   4.1204   4.1358   4.2263   4.2362   4.3459   4.3661   4.4579
     4.5041   4.6047   4.6819   4.7846   4.9520   4.9658   5.0286   5.1741
     5.3337   5.3382   5.5257   5.5281   5.5796   5.5812   5.6725   5.6896
     5.7309   5.7337   5.7903   5.7969   5.8983   5.9026   5.9389   5.9438
     5.9793   5.9956   6.0867   6.0987   6.1135   6.1349   6.1708   6.2067
     6.2733   6.2943   6.3013   6.3464

          k = 0.0000 0.3299 0.0000 ( 38225 PWs)   bands (ev):

    -8.1604  -8.1590  -7.9564  -7.9550  -7.8249  -7.8235  -7.7256  -7.7243
    -7.6345  -7.6332  -7.5371  -7.5357  -7.4295  -7.4282  -7.3132  -7.3119
    -7.1903  -7.1891  -7.0632  -7.0622  -6.9332  -6.9323  -6.7998  -6.7992
    -6.6614  -6.6609  -6.5095  -6.5091  -6.0747  -6.0730  -4.0004  -3.9751
    -3.7819  -3.7579  -3.6395  -3.6162  -3.5099  -3.4872  -3.3726  -3.3507
    -3.2281  -3.2071  -3.0803  -3.0603  -2.9326  -2.9138  -2.7880  -2.7709
    -2.6481  -2.6331  -2.5112  -2.4980  -2.3741  -2.3617  -2.2343  -2.2221
    -2.0863  -2.0744  -1.8526  -1.8466  -0.4528  -0.3470  -0.2242  -0.1162
    -0.0709   0.0411   0.0852   0.2070   0.2683   0.4059   0.4757   0.6367
     0.6996   0.8930   0.9311   1.1125   1.1611   1.1734   1.2619   1.3229
     1.4051   1.4181   1.4770   1.4883   1.5665   1.6015   1.6463   1.6567
     1.6929   1.7240   1.7620   1.7855   1.8039   1.8404   1.9121   1.9197
     1.9271   1.9813   2.0195   2.0281   2.0834   2.0906   2.1128   2.1623
     2.1968   2.2207   2.2549   2.2839   2.3158   2.3378   2.4073   2.4317
     2.4396   2.4722   2.5303   2.5651   2.6069   2.6459   2.6626   2.7228
     2.7821   2.7891   2.8521   2.8738   2.9528   2.9702   3.0387   3.0407
     3.1098   3.1690   3.2096   3.2182   3.2816   3.3486   3.3981   3.4120
     3.5329   3.6162   3.6570   3.7056   3.7950   3.8738   4.0167   4.0932
     4.1966   4.2710   4.4458   4.5123   4.8012   4.8836   4.9324   4.9476
     5.4341   5.4438   5.4790   5.5152   5.6083   5.6224   5.7288   5.7343
     5.8260   5.8446   5.9382   5.9427   6.0096   6.0365   6.1371   6.1518
     6.2629   6.2874   6.3579   6.4003   6.4651   6.4784   6.5820   6.5829
     6.7580   6.7691   6.8168   6.8326

          k = 0.0000 0.4949 0.0000 ( 38312 PWs)   bands (ev):

    -7.4427  -7.4413  -7.2557  -7.2545  -7.1350  -7.1340  -7.0456  -7.0447
    -6.9733  -6.9724  -6.9091  -6.9083  -6.8463  -6.8457  -6.7811  -6.7807
    -6.7126  -6.7124  -6.6409  -6.6409  -6.5661  -6.5659  -6.4872  -6.4868
    -6.4000  -6.3994  -6.2775  -6.2769  -5.7354  -5.7353  -4.4985  -4.4923
    -4.2946  -4.2883  -4.1613  -4.1549  -4.0491  -4.0423  -3.9310  -3.9235
    -3.7997  -3.7911  -3.6574  -3.6477  -3.5092  -3.4980  -3.3610  -3.3484
    -3.2187  -3.2053  -3.0814  -3.0682  -2.9429  -2.9298  -2.8005  -2.7870
    -2.6501  -2.6364  -2.4190  -2.4094  -1.1132  -1.0297  -0.8763  -0.7964
    -0.7030  -0.6278  -0.5086  -0.4405  -0.2796  -0.2195  -0.0191   0.0331
     0.2697   0.3143   0.5833   0.6168   0.7079   0.7467   0.9061   0.9187
     0.9494   0.9566   1.0498   1.0826   1.1155   1.1248   1.1789   1.2080
     1.2698   1.2780   1.3202   1.3300   1.3504   1.3522   1.4607   1.4766
     1.4809   1.4946   1.6063   1.6084   1.6301   1.6376   1.6608   1.6702
     1.7904   1.7973   1.8189   1.8407   1.9441   1.9677   1.9924   2.0015
     2.0344   2.0526   2.2010   2.2047   2.2437   2.2504   2.2897   2.2933
     2.4450   2.4503   2.4765   2.4955   2.5615   2.5905   2.7028   2.7084
     2.7112   2.7345   2.8876   2.8920   2.9730   2.9752   3.0502   3.0620
     3.2088   3.2212   3.2861   3.3238   3.4885   3.5216   3.6370   3.6544
     3.9128   3.9539   4.2240   4.2750   4.5942   4.6433   4.7548   4.7851
     5.1918   5.2533   5.3116   5.3192   5.3295   5.3900   5.6021   5.6072
     5.6276   5.6430   5.7497   5.7621   5.9041   5.9087   5.9839   6.0065
     6.1513   6.1659   6.2766   6.2781   6.3778   6.3901   6.5703   6.5799
     6.6854   6.7056   6.7670   6.7925

          k = 0.1429 0.2474 0.0000 ( 38179 PWs)   bands (ev):

    -8.3336  -8.3323  -8.1284  -8.1271  -7.9963  -7.9950  -7.8958  -7.8945
    -7.8016  -7.8003  -7.6993  -7.6980  -7.5856  -7.5843  -7.4618  -7.4605
    -7.3300  -7.3288  -7.1932  -7.1920  -7.0531  -7.0521  -6.9104  -6.9095
    -6.7631  -6.7622  -6.6033  -6.6026  -6.1817  -6.1796  -4.0337  -4.0115
    -3.7930  -3.7713  -3.6257  -3.6039  -3.4524  -3.4300  -3.2638  -3.2408
    -3.0698  -3.0464  -2.8807  -2.8574  -2.7045  -2.6819  -2.5460  -2.5256
    -2.4038  -2.3864  -2.2703  -2.2547  -2.1397  -2.1246  -2.0096  -1.9949
    -1.8733  -1.8590  -1.6427  -1.6343   0.0844   0.2829   0.3008   0.4169
     0.4644   0.5266   0.5983   0.6456   0.6938   0.7705   0.7927   0.8356
     0.9459   0.9542   1.0061   1.0208   1.1233   1.1544   1.1847   1.2270
     1.3147   1.3372   1.3729   1.3872   1.5020   1.5193   1.5451   1.5539
     1.6527   1.6605   1.7038   1.7267   1.7835   1.7926   1.8551   1.8786
     1.9055   1.9465   1.9807   2.0263   2.0468   2.0587   2.1342   2.1643
     2.2073   2.2845   2.3127   2.3590   2.4157   2.4759   2.5566   2.5949
     2.6831   2.7930   2.8335   2.9551   2.9865   3.0118   3.0997   3.1435
     3.1644   3.2389   3.2733   3.3039   3.3750   3.4099   3.4826   3.4985
     3.5152   3.5801   3.5992   3.6668   3.6874   3.7110   3.7739   3.7978
     3.8710   3.9020   3.9588   4.0010   4.0705   4.0984   4.1526   4.2057
     4.2688   4.3232   4.4220   4.5012   4.7156   4.8572   5.1022   5.1596
     5.4030   5.4127   5.5864   5.5933   5.6454   5.6594   5.7490   5.7512
     5.8570   5.8762   5.9442   5.9600   5.9849   6.0322   6.1148   6.1466
     6.1919   6.2341   6.2722   6.2973   6.3574   6.4078   6.4405   6.4846
     6.5792   6.6232   6.6474   6.6873

          k = 0.1429 0.4124 0.0000 ( 38336 PWs)   bands (ev):

    -7.6842  -7.6826  -7.4858  -7.4843  -7.3574  -7.3560  -7.2625  -7.2611
    -7.1815  -7.1802  -7.1013  -7.1001  -7.0162  -7.0151  -6.9262  -6.9252
    -6.8326  -6.8318  -6.7357  -6.7350  -6.6351  -6.6345  -6.5301  -6.5295
    -6.4188  -6.4181  -6.2879  -6.2871  -5.8031  -5.8018  -4.0450  -4.0239
    -3.8662  -3.8443  -3.7482  -3.7259  -3.6582  -3.6353  -3.5793  -3.5551
    -3.5039  -3.4778  -3.4320  -3.4056  -3.3609  -3.3377  -3.2826  -3.2616
    -3.1975  -3.1769  -3.1087  -3.0882  -3.0169  -2.9966  -2.9198  -2.8998
    -2.8054  -2.7860  -2.5353  -2.5224  -0.7816  -0.6722  -0.5486  -0.4408
    -0.3853  -0.2783  -0.2094  -0.1025  -0.0043   0.0986   0.1373   0.2087
     0.2359   0.3360   0.3669   0.4418   0.4667   0.5083   0.5858   0.6131
     0.6552   0.6746   0.7447   0.8007   0.8212   0.8614   0.8956   0.9552
     0.9678   1.0403   1.0878   1.1257   1.1328   1.2024   1.2488   1.2758
     1.3309   1.3769   1.4312   1.4776   1.5195   1.5558   1.5901   1.6528
     1.6956   1.7689   1.7960   1.8263   1.8734   1.9349   2.0204   2.0611
     2.1242   2.1661   2.2159   2.2703   2.3517   2.4284   2.4734   2.5079
     2.6354   2.6512   2.7324   2.8029   2.8641   2.9121   3.0030   3.0334
     3.0977   3.1270   3.1985   3.2591   3.3144   3.3678   3.4472   3.4598
     3.4964   3.5762   3.6398   3.6964   3.7488   3.8326   3.9074   3.9730
     4.0157   4.0974   4.1947   4.2731   4.4306   4.5533   5.0785   5.1271
     5.3492   5.3730   5.4843   5.4959   5.6927   5.7097   5.7724   5.7764
     5.8264   5.8340   5.9709   5.9859   6.0562   6.0788   6.1760   6.2164
     6.2689   6.3007   6.3873   6.4282   6.4787   6.5305   6.6689   6.7295
     6.7583   6.8022   6.9417   7.0088

          k = 0.1429 0.5774 0.0000 ( 38341 PWs)   bands (ev):

    -7.1712  -7.1702  -7.0136  -7.0127  -6.9060  -6.9051  -6.8210  -6.8201
    -6.7505  -6.7496  -6.6905  -6.6895  -6.6385  -6.6375  -6.5918  -6.5909
    -6.5475  -6.5466  -6.5027  -6.5017  -6.4538  -6.4528  -6.3975  -6.3966
    -6.3264  -6.3254  -6.1962  -6.1952  -5.6105  -5.6088  -4.5508  -4.5379
    -4.3529  -4.3396  -4.2236  -4.2100  -4.1181  -4.1038  -4.0121  -3.9966
    -3.8984  -3.8810  -3.7799  -3.7599  -3.6633  -3.6396  -3.5569  -3.5293
    -3.4585  -3.4303  -3.3538  -3.3263  -3.2420  -3.2132  -3.1259  -3.0951
    -2.9992  -2.9666  -2.7668  -2.7386  -1.1031  -1.0113  -0.8686  -0.7779
    -0.7018  -0.6098  -0.5183  -0.4218  -0.3032  -0.1974  -0.0664   0.0538
     0.1659   0.2223   0.2639   0.3235   0.3772   0.4096   0.4508   0.4785
     0.4956   0.5430   0.6009   0.6389   0.6707   0.6855   0.7157   0.7365
     0.7685   0.8066   0.8554   0.8693   0.9034   0.9709   1.0081   1.0393
     1.0699   1.1164   1.1258   1.2138   1.2501   1.2738   1.3743   1.4351
     1.4497   1.4764   1.4993   1.5748   1.6260   1.7005   1.7551   1.7882
     1.8491   1.9063   1.9818   2.0486   2.0742   2.1485   2.2629   2.3049
     2.3446   2.4040   2.4706   2.5865   2.5980   2.6800   2.7583   2.8154
     2.8917   2.9728   3.0116   3.1125   3.1953   3.2306   3.2774   3.3343
     3.4427   3.4943   3.5549   3.5983   3.6678   3.7256   3.7770   3.7944
     3.8794   3.9143   4.0356   4.1033   4.2275   4.3377   5.0855   5.1110
     5.3049   5.3349   5.3572   5.3673   5.5852   5.6071   5.6556   5.6695
     5.6819   5.7248   5.8321   5.8979   5.9502   5.9802   6.1569   6.2009
     6.2744   6.3095   6.3441   6.3787   6.5365   6.5974   6.6794   6.7070
     6.7899   6.8513   7.0415   7.0733

          k = 0.2857 0.4949 0.0000 ( 38411 PWs)   bands (ev):

    -7.1263  -7.1246  -6.9519  -6.9503  -6.8397  -6.8381  -6.7534  -6.7518
    -6.6834  -6.6818  -6.6236  -6.6220  -6.5699  -6.5683  -6.5186  -6.5169
    -6.4668  -6.4651  -6.4125  -6.4107  -6.3551  -6.3533  -6.2928  -6.2909
    -6.2192  -6.2172  -6.0944  -6.0925  -5.5247  -5.5220  -4.1959  -4.1706
    -4.0927  -4.0655  -4.0022  -3.9744  -3.9365  -3.9165  -3.9032  -3.8667
    -3.8627  -3.8382  -3.8145  -3.7868  -3.7677  -3.7399  -3.7239  -3.6959
    -3.6813  -3.6529  -3.6359  -3.6070  -3.5828  -3.5531  -3.5121  -3.4819
    -3.3897  -3.3613  -3.1221  -3.1015  -0.7521  -0.6473  -0.6074  -0.5601
    -0.4919  -0.4153  -0.3690  -0.3312  -0.3129  -0.2455  -0.1999  -0.1716
    -0.1598  -0.0962  -0.0643  -0.0362   0.0058   0.0278   0.0800   0.0893
     0.1582   0.1624   0.2124   0.2248   0.2722   0.3062   0.3456   0.3674
     0.4209   0.4464   0.5143   0.5326   0.6130   0.6635   0.7877   0.8604
     0.9047   0.9395   1.0495   1.0717   1.1565   1.2190   1.2341   1.2604
     1.3640   1.4222   1.4766   1.5136   1.5567   1.5784   1.6803   1.7598
     1.8269   1.8605   1.9409   2.0010   2.0689   2.1436   2.2338   2.2554
     2.3377   2.3856   2.4934   2.5410   2.6430   2.6685   2.7315   2.7846
     2.8781   2.9359   3.0210   3.0553   3.1677   3.2024   3.2712   3.3104
     3.4155   3.4624   3.5402   3.5512   3.6224   3.6501   3.7751   3.8196
     3.8867   3.9214   3.9864   4.0603   4.2134   4.3014   5.2699   5.2810
     5.4898   5.5058   5.6190   5.6236   5.8094   5.8200   5.8687   5.8922
     5.9775   5.9809   6.1752   6.1862   6.2134   6.2391   6.3159   6.3298
     6.5363   6.5662   6.6816   6.6989   6.7769   6.8320   7.0063   7.0324
     7.1453   7.1607   7.1881   7.2173

     the Fermi energy is     4.8679 ev

!    total energy              =    -552.37847291 Ry
     Harris-Foulkes estimate   =    -552.37847291 Ry
     estimated scf accuracy    <          8.6E-09 Ry

     The total energy is the sum of the following terms:

     one-electron contribution =   -2781.54777159 Ry
     hartree contribution      =    1452.23304676 Ry
     xc contribution           =    -292.10549479 Ry
     ewald contribution        =    1069.03878170 Ry
     smearing contrib. (-TS)   =       0.00296501 Ry

     convergence has been achieved in  37 iterations

     Writing output data file GeTe.slab.save/
 
     init_run     :      7.68s CPU      8.93s WALL (       1 calls)
     electrons    :    644.09s CPU    783.35s WALL (       1 calls)

     Called by init_run:
     wfcinit      :      6.17s CPU      7.33s WALL (       1 calls)
     potinit      :      0.54s CPU      0.57s WALL (       1 calls)
     hinit0       :      0.84s CPU      0.84s WALL (       1 calls)

     Called by electrons:
     c_bands      :    456.30s CPU    557.50s WALL (      38 calls)
     sum_band     :     95.70s CPU    119.47s WALL (      38 calls)
     v_of_rho     :      5.30s CPU      6.44s WALL (      38 calls)
     mix_rho      :     82.76s CPU     91.49s WALL (      38 calls)

     Called by c_bands:
     init_us_2    :      2.20s CPU      2.25s WALL (      77 calls)
     cegterg      :    430.95s CPU    512.57s WALL (      38 calls)

     Called by sum_band:

     Called by *egterg:
     h_psi        :    322.08s CPU    401.58s WALL (     163 calls)
     g_psi        :      1.34s CPU      1.34s WALL (     124 calls)
     cdiaghg      :     18.03s CPU     19.65s WALL (     161 calls)

     Called by h_psi:
     h_psi:pot    :    320.36s CPU    398.57s WALL (     163 calls)
     h_psi:calbec :     28.22s CPU     28.40s WALL (     163 calls)
     vloc_psi     :    263.76s CPU    341.61s WALL (     163 calls)
     add_vuspsi   :     28.38s CPU     28.56s WALL (     163 calls)

     General routines
     calbec       :     28.22s CPU     28.40s WALL (     163 calls)
     fft          :      3.72s CPU      4.39s WALL (     492 calls)
     ffts         :     36.40s CPU     42.83s WALL (    4862 calls)
     fftw         :    232.55s CPU    324.45s WALL (   75444 calls)
 
     Parallel routines
     fft_scatt_xy :     62.22s CPU     82.68s WALL (   80798 calls)
     fft_scatt_yz :     57.15s CPU     57.59s WALL (   80798 calls)
 
     PWSCF        :  10m52.42s CPU  13m28.86s WALL

 
   This run was terminated on:  16: 8:55   7Oct2019            

=------------------------------------------------------------------------------=
   JOB DONE.
=------------------------------------------------------------------------------=
