
     Program PWSCF v.6.4.1 starts on  6Oct2019 at 14:47:27 

     This program is part of the open-source Quantum ESPRESSO suite
     for quantum simulation of materials; please cite
         "P. Giannozzi et al., J. Phys.:Condens. Matter 21 395502 (2009);
         "P. Giannozzi et al., J. Phys.:Condens. Matter 29 465901 (2017);
          URL http://www.quantum-espresso.org", 
     in publications or presentations arising from this work. More details at
     http://www.quantum-espresso.org/quote

     Parallel version (MPI), running on    16 processors

     MPI processes distributed on     1 nodes
     K-points division:     npool     =      16
     Waiting for input...
     Reading input from standard input

     Current dimensions of program PWSCF are:
     Max number of different atomic species (ntypx) = 10
     Max number of k-points (npk) =  40000
     Max angular momentum in pseudopotentials (lmaxx) =  3

     Subspace diagonalization in iterative solution of the eigenvalue problem:
     a serial algorithm will be used

     Found symmetry operation: I + ( -0.3333  0.3333  0.3333)
     This is a supercell, fractional translations are disabled
 
     G-vector sticks info
     --------------------
     sticks:   dense  smooth     PW     G-vecs:    dense   smooth      PW
     Sum         379     379    121                14535    14535    2515
 


     bravais-lattice index     =            4
     lattice parameter (alat)  =       4.7659  a.u.
     unit-cell volume          =     229.6366 (a.u.)^3
     number of atoms/cell      =            6
     number of atomic types    =            1
     number of electrons       =        24.00
     number of Kohn-Sham states=           24
     kinetic-energy cutoff     =      60.0000  Ry
     charge density cutoff     =     240.0000  Ry
     convergence threshold     =      1.0E-10
     mixing beta               =       0.7000
     number of iterations used =            8  plain     mixing
     Exchange-correlation= PBESOL
                           (   1   4  10   8   0   0   0)

     celldm(1)=   4.765900  celldm(2)=   0.000000  celldm(3)=   2.449490
     celldm(4)=   0.000000  celldm(5)=   0.000000  celldm(6)=   0.000000

     crystal axes: (cart. coord. in units of alat)
               a(1) = (   1.000000   0.000000   0.000000 )  
               a(2) = (  -0.500000   0.866025   0.000000 )  
               a(3) = (   0.000000   0.000000   2.449490 )  

     reciprocal axes: (cart. coord. in units 2 pi/alat)
               b(1) = (  1.000000  0.577350  0.000000 )  
               b(2) = (  0.000000  1.154701  0.000000 )  
               b(3) = (  0.000000  0.000000  0.408248 )  


     PseudoPot. # 1 for C  read from file:
     ../pseudo/C.rel-pbesol-nc.UPF
     MD5 check sum: f9fc97e0a2262c405c2ea375396131e1
     Pseudo is Norm-conserving, Zval =  4.0
     Generated using "atomic" code by A. Dal Corso v.5.0.99 svn rev. 10869
     Using radial grid of 1073 points,  1 beta functions with: 
                l(1) =   1

     atomic species   valence    mass     pseudopotential
        C              4.00    12.00000     C ( 1.00)

      2 Sym. Ops. (no inversion) found



   Cartesian axes

     site n.     atom                  positions (alat units)
         1           C   tau(   1) = (   0.1666666  -0.2886751  -1.1226828  )
         2           C   tau(   2) = (   0.1666666  -0.2886751  -0.5103103  )
         3           C   tau(   3) = (  -0.3333333   0.0000000  -0.3061862  )
         4           C   tau(   4) = (  -0.3333333   0.0000000   0.3061862  )
         5           C   tau(   5) = (   0.1666666   0.2886751   0.5103103  )
         6           C   tau(   6) = (   0.1666666   0.2886751   1.1226828  )

     number of k points=    72
                       cart. coord. in units 2pi/alat
        k(    1) = (   0.0000000   0.0000000   0.0000000), wk =   0.0081633
        k(    2) = (   0.0000000   0.0000000   0.0816496), wk =   0.0163265
        k(    3) = (   0.0000000   0.0000000   0.1632993), wk =   0.0163265
        k(    4) = (   0.0000000   0.1649572   0.0000000), wk =   0.0163265
        k(    5) = (   0.0000000   0.1649572   0.0816496), wk =   0.0163265
        k(    6) = (   0.0000000   0.1649572   0.1632993), wk =   0.0163265
        k(    7) = (   0.0000000   0.3299144   0.0000000), wk =   0.0163265
        k(    8) = (   0.0000000   0.3299144   0.0816496), wk =   0.0163265
        k(    9) = (   0.0000000   0.3299144   0.1632993), wk =   0.0163265
        k(   10) = (   0.0000000   0.4948717   0.0000000), wk =   0.0163265
        k(   11) = (   0.0000000   0.4948717   0.0816496), wk =   0.0163265
        k(   12) = (   0.0000000   0.4948717   0.1632993), wk =   0.0163265
        k(   13) = (   0.1428571   0.2474358   0.0000000), wk =   0.0326531
        k(   14) = (   0.1428571   0.2474358   0.0816496), wk =   0.0326531
        k(   15) = (   0.1428571   0.2474358   0.1632993), wk =   0.0326531
        k(   16) = (   0.1428571   0.4123930   0.0000000), wk =   0.0326531
        k(   17) = (   0.1428571   0.4123930   0.0816496), wk =   0.0326531
        k(   18) = (   0.1428571   0.4123930   0.1632993), wk =   0.0326531
        k(   19) = (   0.1428571   0.5773503   0.0000000), wk =   0.0163265
        k(   20) = (   0.1428571   0.5773503   0.0816496), wk =   0.0326531
        k(   21) = (   0.1428571   0.5773503   0.1632993), wk =   0.0326531
        k(   22) = (   0.2857143   0.4948717   0.0000000), wk =   0.0326531
        k(   23) = (   0.2857143   0.4948717   0.0816496), wk =   0.0326531
        k(   24) = (   0.2857143   0.4948717   0.1632993), wk =   0.0326531
        k(   25) = (  -0.1428571   0.0824786   0.0000000), wk =   0.0326531
        k(   26) = (   0.0000000   0.1649572  -0.0816496), wk =   0.0163265
        k(   27) = (  -0.1428571   0.0824786   0.0816496), wk =   0.0326531
        k(   28) = (  -0.1428571  -0.0824786   0.0816496), wk =   0.0326531
        k(   29) = (   0.0000000   0.1649572  -0.1632993), wk =   0.0163265
        k(   30) = (  -0.1428571   0.0824786   0.1632993), wk =   0.0326531
        k(   31) = (  -0.1428571  -0.0824786   0.1632993), wk =   0.0326531
        k(   32) = (  -0.2857143   0.1649572   0.0000000), wk =   0.0326531
        k(   33) = (   0.0000000   0.3299144  -0.0816496), wk =   0.0163265
        k(   34) = (  -0.2857143   0.1649572   0.0816496), wk =   0.0326531
        k(   35) = (  -0.2857143  -0.1649572   0.0816496), wk =   0.0326531
        k(   36) = (   0.0000000   0.3299144  -0.1632993), wk =   0.0163265
        k(   37) = (  -0.2857143   0.1649572   0.1632993), wk =   0.0326531
        k(   38) = (  -0.2857143  -0.1649572   0.1632993), wk =   0.0326531
        k(   39) = (  -0.4285714   0.2474358   0.0000000), wk =   0.0326531
        k(   40) = (   0.0000000   0.4948717  -0.0816496), wk =   0.0163265
        k(   41) = (  -0.4285714   0.2474358   0.0816496), wk =   0.0326531
        k(   42) = (  -0.4285714  -0.2474358   0.0816496), wk =   0.0326531
        k(   43) = (   0.0000000   0.4948717  -0.1632993), wk =   0.0163265
        k(   44) = (  -0.4285714   0.2474358   0.1632993), wk =   0.0326531
        k(   45) = (  -0.4285714  -0.2474358   0.1632993), wk =   0.0326531
        k(   46) = (   0.2857143   0.0000000   0.0000000), wk =   0.0163265
        k(   47) = (  -0.1428571   0.2474358  -0.0816496), wk =   0.0326531
        k(   48) = (   0.2857143   0.0000000   0.0816496), wk =   0.0326531
        k(   49) = (  -0.1428571   0.2474358  -0.1632993), wk =   0.0326531
        k(   50) = (   0.2857143   0.0000000   0.1632993), wk =   0.0326531
        k(   51) = (  -0.2857143   0.3299144   0.0000000), wk =   0.0326531
        k(   52) = (   0.4285714   0.0824786   0.0000000), wk =   0.0326531
        k(   53) = (  -0.1428571   0.4123930  -0.0816496), wk =   0.0326531
        k(   54) = (  -0.2857143   0.3299144   0.0816496), wk =   0.0326531
        k(   55) = (   0.4285714   0.0824786   0.0816496), wk =   0.0326531
        k(   56) = (  -0.4285714  -0.0824786   0.0816496), wk =   0.0326531
        k(   57) = (   0.2857143  -0.3299144   0.0816496), wk =   0.0326531
        k(   58) = (  -0.1428571   0.4123930  -0.1632993), wk =   0.0326531
        k(   59) = (  -0.2857143   0.3299144   0.1632993), wk =   0.0326531
        k(   60) = (   0.4285714   0.0824786   0.1632993), wk =   0.0326531
        k(   61) = (  -0.4285714  -0.0824786   0.1632993), wk =   0.0326531
        k(   62) = (   0.2857143  -0.3299144   0.1632993), wk =   0.0326531
        k(   63) = (  -0.4285714   0.4123930   0.0000000), wk =   0.0326531
        k(   64) = (  -0.4285714   0.4123930   0.0816496), wk =   0.0326531
        k(   65) = (   0.5714286   0.1649572   0.0816496), wk =   0.0326531
        k(   66) = (  -0.4285714   0.4123930   0.1632993), wk =   0.0326531
        k(   67) = (   0.5714286   0.1649572   0.1632993), wk =   0.0326531
        k(   68) = (   0.5714286   0.0000000   0.0000000), wk =   0.0163265
        k(   69) = (  -0.2857143   0.4948717  -0.0816496), wk =   0.0326531
        k(   70) = (   0.5714286   0.0000000   0.0816496), wk =   0.0326531
        k(   71) = (  -0.2857143   0.4948717  -0.1632993), wk =   0.0326531
        k(   72) = (   0.5714286   0.0000000   0.1632993), wk =   0.0326531

     Dense  grid:    14535 G-vectors     FFT dimensions: (  24,  24,  60)

     Estimated max dynamical RAM per process >      18.61 MB

     Estimated total dynamical RAM >     297.69 MB

     Initial potential from superposition of free atoms

     starting charge   23.99975, renormalised to   24.00000
     Starting wfcs are   24 randomized atomic wfcs

     total cpu time spent up to now is        0.4 secs

     Self-consistent Calculation

     iteration #  1     ecut=    60.00 Ry     beta= 0.70
     Davidson diagonalization with overlap
     ethr =  1.00E-02,  avg # of iterations =  3.0

     total cpu time spent up to now is        1.0 secs

     total energy              =     -68.24155703 Ry
     Harris-Foulkes estimate   =     -68.41215398 Ry
     estimated scf accuracy    <       0.34781015 Ry

     iteration #  2     ecut=    60.00 Ry     beta= 0.70
     Davidson diagonalization with overlap
     ethr =  1.45E-03,  avg # of iterations =  1.0

     total cpu time spent up to now is        1.3 secs

     total energy              =     -68.26833908 Ry
     Harris-Foulkes estimate   =     -68.26934697 Ry
     estimated scf accuracy    <       0.00556709 Ry

     iteration #  3     ecut=    60.00 Ry     beta= 0.70
     Davidson diagonalization with overlap
     ethr =  2.32E-05,  avg # of iterations =  3.0

     total cpu time spent up to now is        1.9 secs

     total energy              =     -68.26965711 Ry
     Harris-Foulkes estimate   =     -68.26967434 Ry
     estimated scf accuracy    <       0.00025233 Ry

     iteration #  4     ecut=    60.00 Ry     beta= 0.70
     Davidson diagonalization with overlap
     ethr =  1.05E-06,  avg # of iterations =  1.2

     total cpu time spent up to now is        2.2 secs

     total energy              =     -68.26966664 Ry
     Harris-Foulkes estimate   =     -68.26967356 Ry
     estimated scf accuracy    <       0.00001421 Ry

     iteration #  5     ecut=    60.00 Ry     beta= 0.70
     Davidson diagonalization with overlap
     ethr =  5.92E-08,  avg # of iterations =  1.5

     total cpu time spent up to now is        2.6 secs

     total energy              =     -68.26966803 Ry
     Harris-Foulkes estimate   =     -68.26966802 Ry
     estimated scf accuracy    <       0.00000004 Ry

     iteration #  6     ecut=    60.00 Ry     beta= 0.70
     Davidson diagonalization with overlap
     ethr =  1.84E-10,  avg # of iterations =  2.4

     total cpu time spent up to now is        3.0 secs

     total energy              =     -68.26966807 Ry
     Harris-Foulkes estimate   =     -68.26966808 Ry
     estimated scf accuracy    <       0.00000005 Ry

     iteration #  7     ecut=    60.00 Ry     beta= 0.70
     Davidson diagonalization with overlap
     ethr =  1.84E-10,  avg # of iterations =  1.1

     total cpu time spent up to now is        3.4 secs

     total energy              =     -68.26966807 Ry
     Harris-Foulkes estimate   =     -68.26966807 Ry
     estimated scf accuracy    <          4.3E-09 Ry

     iteration #  8     ecut=    60.00 Ry     beta= 0.70
     Davidson diagonalization with overlap
     ethr =  1.79E-11,  avg # of iterations =  1.1

     total cpu time spent up to now is        3.8 secs

     total energy              =     -68.26966807 Ry
     Harris-Foulkes estimate   =     -68.26966807 Ry
     estimated scf accuracy    <          2.6E-10 Ry

     iteration #  9     ecut=    60.00 Ry     beta= 0.70
     Davidson diagonalization with overlap
     ethr =  1.06E-12,  avg # of iterations =  1.9

     total cpu time spent up to now is        4.1 secs

     End of self-consistent calculation

          k = 0.0000 0.0000 0.0000 (  1811 PWs)   bands (ev):

    -8.2078  -5.1725  -5.1725   3.9258   3.9258  11.0049  11.0049  11.0049
    11.0049  13.3562  13.3566  13.3566  18.9381  18.9386  18.9386  21.6498
    21.6498  21.6498  21.6498  21.9682  21.9682  26.5752  28.4232  28.4232

          k = 0.0000 0.0000 0.0816 (  1799 PWs)   bands (ev):

    -8.0841  -6.2487  -3.9086   1.8686   6.1527  10.6933  10.6933  11.4563
    11.4563  12.5291  13.1403  13.1403  19.2212  19.2212  19.4413  21.2866
    21.2866  21.6387  21.8002  21.8002  22.1598  26.6791  27.9676  28.7070

          k = 0.0000 0.0000 0.1633 (  1780 PWs)   bands (ev):

    -7.7140  -7.1000  -2.6435   0.2002   8.4458  10.5359  10.5359  10.6665
    12.0178  12.0178  12.6244  12.6244  19.9007  19.9007  20.3528  20.6685
    20.6685  21.1215  21.8385  21.8385  22.2492  26.9822  27.4426  28.8247

          k = 0.0000 0.1650 0.0000 (  1802 PWs)   bands (ev):

    -7.7037  -4.6886  -4.6862   4.2582   4.2909   8.3293   9.5716   9.8087
    10.8473  11.0139  12.1931  12.7738  19.3262  20.1395  20.4157  20.5386
    21.8704  22.0819  23.6161  23.8456  23.8472  26.2552  26.8980  27.6302

          k = 0.0000 0.1650 0.0816 (  1788 PWs)   bands (ev):

    -7.5804  -5.7557  -3.4333   2.2679   6.4160   8.6000   9.2114   9.5099
    11.3005  11.5359  11.6685  12.1122  18.5683  20.5176  21.2719  21.2725
    21.3376  22.0278  23.0306  23.7649  24.0023  26.5644  27.0974  27.2542

          k = 0.0000 0.1650 0.1633 (  1780 PWs)   bands (ev):

    -7.2114  -6.6019  -2.1892   0.6461   8.3976   8.7331   9.2217   9.6407
    10.4556  10.8554  11.4841  12.2726  18.4172  20.5521  20.8203  21.8668
    22.1116  22.2289  22.2369  23.5022  24.0535  26.1241  26.9955  28.2948

          k = 0.0000 0.3299 0.0000 (  1804 PWs)   bands (ev):

    -6.2081  -3.2786  -3.2399   3.9161   4.6607   5.6784   6.6890   6.9491
     7.9999  10.0560  10.5152  11.3132  18.5642  20.0706  21.0772  21.9876
    22.4865  22.5854  23.7169  25.9522  26.8731  27.2072  27.3281  27.4756

          k = 0.0000 0.3299 0.0816 (  1809 PWs)   bands (ev):

    -6.0854  -4.3094  -2.0227   3.0821   4.1512   5.9973   7.5278   7.5291
     8.0435   9.7840  10.4584  10.7561  18.9476  19.0109  21.6832  22.5244
    23.2929  23.7267  23.8093  24.2771  25.1675  27.0910  27.5072  27.5484

          k = 0.0000 0.3299 0.1633 (  1792 PWs)   bands (ev):

    -5.7207  -5.1315  -0.8427   1.7358   4.5314   5.2189   8.0901   8.2989
     9.0985   9.3176   9.3454  11.2812  18.0054  19.3737  21.6171  22.0049
    22.8338  23.5114  25.0636  25.0791  25.2208  26.6393  27.5650  27.7887

          k = 0.0000 0.4949 0.0000 (  1808 PWs)   bands (ev):

    -3.8048  -1.5883  -0.8985   0.6896   2.1504   2.8155   6.8405   7.0920
     7.3180   9.3723   9.3855   9.5080  17.8789  18.8494  20.4247  20.5285
    23.8122  23.9708  24.2288  25.1654  26.9423  28.2902  29.7351  29.7739

          k = 0.0000 0.4949 0.0816 (  1810 PWs)   bands (ev):

    -3.6728  -2.2590   0.2627   0.4877   1.1626   3.8230   5.8781   7.1854
     8.1306   8.7641   8.8702  10.0801  18.2869  19.5134  19.7446  21.3140
    22.8364  23.6204  24.6538  25.3820  25.5401  28.8195  29.5094  29.7708

          k = 0.0000 0.4949 0.1633 (  1813 PWs)   bands (ev):

    -3.3105  -2.8969   0.2979   0.6734   1.4631   4.6138   4.7847   7.0431
     7.4911   8.0854  10.0887  10.5432  18.5874  18.6741  21.7242  21.8320
    21.9670  22.2982  22.5227  26.9890  27.1162  28.7061  28.8033  29.3409

          k = 0.1429 0.2474 0.0000 (  1788 PWs)   bands (ev):

    -6.7037  -3.7287  -3.7287   4.7699   4.7699   6.4912   6.4912   8.6112
     9.1413   9.1413   9.3862  12.3454  20.4502  21.0135  21.0135  21.8135
    21.9651  23.2797  23.2797  24.9873  24.9873  26.7732  26.7732  27.0042

          k = 0.1429 0.2474 0.0816 (  1798 PWs)   bands (ev):

    -6.5815  -4.7790  -2.5052   2.9976   6.1342   6.3205   7.2953   8.1023
     8.5186   9.8093   9.8237  11.9030  19.8911  20.0774  21.6113  22.2113
    22.5484  23.0998  23.6374  24.6847  25.7670  25.7886  26.6333  27.4270

          k = 0.1429 0.2474 0.1633 (  1806 PWs)   bands (ev):

    -6.2170  -5.6134  -1.3037   1.4807   6.3110   6.7731   7.3961   8.1347
     8.9077  10.0546  10.3559  10.8740  19.3011  19.3633  21.7764  23.0674
    23.1991  23.3302  23.7414  24.4750  25.0142  25.8015  26.7658  27.7550

          k = 0.1429 0.4124 0.0000 (  1803 PWs)   bands (ev):

    -4.7464  -1.9589  -1.8533   2.2810   3.5881   4.9258   6.0291   6.3084
     7.0035   7.7208   8.3155  10.8479  19.4292  21.4340  21.7177  21.7557
    22.1247  23.0778  24.3231  26.2417  26.9647  27.2057  27.6044  28.8997

          k = 0.1429 0.4124 0.0816 (  1806 PWs)   bands (ev):

    -4.6245  -2.9256  -0.6861   2.4064   2.6999   5.4875   5.7294   6.2172
     7.0152   7.8270   9.0866  10.0781  20.6578  20.7058  20.8268  21.7728
    23.0413  23.5471  25.3052  25.6095  25.6586  26.7562  26.9644  28.9142

          k = 0.1429 0.4124 0.1633 (  1806 PWs)   bands (ev):

    -4.2663  -3.7098   0.4235   1.8643   2.7483   4.5427   5.6575   6.2890
     7.1611   9.0097   9.2156   9.4765  19.6974  20.3924  21.1577  23.4731
    23.5076  23.8488  24.1387  24.8035  26.5884  26.6001  26.8785  27.8934

          k = 0.1429 0.5774 0.0000 (  1802 PWs)   bands (ev):

    -2.0682  -2.0682   0.6692   0.8988   1.5858   1.5858   5.3869   7.0231
     7.0231   7.2910   9.0619   9.0619  18.3994  20.5138  21.5983  21.5983
    22.7981  22.7981  26.0415  26.0415  28.0248  28.0248  29.2309  29.6445

          k = 0.1429 0.5774 0.0816 (  1804 PWs)   bands (ev):

    -2.0868  -1.8885  -0.1644   0.7630   1.8405   2.5599   5.5290   6.0448
     6.9220   7.9976   8.0435   9.7748  18.9748  20.6652  21.0965  21.5969
    23.1995  23.3867  24.5280  25.8142  27.8097  28.7034  28.7603  29.3914

          k = 0.1429 0.5774 0.1633 (  1801 PWs)   bands (ev):

    -2.0321  -1.5132  -0.9347   0.2737   2.8423   3.2555   5.4461   5.7452
     6.3337   6.9519   8.8841   9.8999  20.2033  21.0033  21.3484  21.3535
    22.6534  23.0873  23.9209  25.5896  27.2922  28.5952  28.7721  29.0870

          k = 0.2857 0.4949 0.0000 (  1816 PWs)   bands (ev):

    -2.4377  -0.2948  -0.2948   1.7000   1.7000   3.5693   4.5014   4.5014
     4.7071   8.0619   8.0619   9.5438  19.6316  19.6316  20.5991  24.5784
    25.4039  25.4039  26.5609  26.5609  27.0466  27.5720  28.1361  28.1361

          k = 0.2857 0.4949 0.0816 (  1803 PWs)   bands (ev):

    -2.3308  -0.9115   0.1856   1.6289   1.9477   3.0510   4.0366   5.3359
     5.4052   7.1503   8.3635   9.1921  19.5174  20.7810  21.1176  23.8901
    25.2493  25.5566  26.2633  26.3270  26.7352  27.4153  27.5354  27.6497

          k = 0.2857 0.4949 0.1633 (  1807 PWs)   bands (ev):

    -2.0190  -1.5265   0.4753   1.8661   1.9660   2.3658   4.3443   6.0979
     6.2182   6.2926   8.1237   8.4165  20.4765  21.8617  22.5059  22.9368
    24.5252  24.5692  25.9391  26.0067  26.2993  26.4019  27.4695  27.6202

          k =-0.1429 0.0825 0.0000 (  1802 PWs)   bands (ev):

    -7.7037  -4.6886  -4.6862   4.2582   4.2909   8.3293   9.5716   9.8087
    10.8473  11.0139  12.1931  12.7738  19.3262  20.1395  20.4157  20.5386
    21.8704  22.0819  23.6161  23.8456  23.8472  26.2552  26.8980  27.6302

          k = 0.0000 0.1650-0.0816 (  1788 PWs)   bands (ev):

    -7.5805  -5.7543  -3.4379   2.2891   6.3810   8.2731   9.8277  10.1547
    10.4214  10.4702  12.2749  12.6289  19.5633  19.9233  20.2593  20.6025
    21.5317  22.6763  23.5400  23.6405  23.8990  25.7235  27.0730  28.3952

          k =-0.1429 0.0825 0.0816 (  1788 PWs)   bands (ev):

    -7.5805  -5.7543  -3.4379   2.2891   6.3810   8.2731   9.8277  10.1547
    10.4214  10.4702  12.2749  12.6289  19.5633  19.9233  20.2593  20.6025
    21.5317  22.6763  23.5400  23.6405  23.8990  25.7235  27.0730  28.3952

          k =-0.1429-0.0825 0.0816 (  1788 PWs)   bands (ev):

    -7.5804  -5.7557  -3.4333   2.2679   6.4160   8.6000   9.2114   9.5099
    11.3005  11.5359  11.6685  12.1122  18.5683  20.5176  21.2719  21.2725
    21.3376  22.0278  23.0306  23.7649  24.0023  26.5644  27.0974  27.2542

          k = 0.0000 0.1650-0.1633 (  1780 PWs)   bands (ev):

    -7.2121  -6.6006  -2.1937   0.6561   8.4124   8.5108   9.4186   9.9507
    10.2658  10.8019  11.0857  12.6522  18.8707  19.9892  21.1011  21.1545
    21.3382  23.0171  23.0840  23.1365  24.0219  25.7505  27.0764  28.7787

          k =-0.1429 0.0825 0.1633 (  1780 PWs)   bands (ev):

    -7.2121  -6.6006  -2.1937   0.6561   8.4124   8.5108   9.4186   9.9507
    10.2658  10.8019  11.0857  12.6522  18.8707  19.9892  21.1011  21.1545
    21.3382  23.0171  23.0840  23.1365  24.0219  25.7505  27.0764  28.7787

          k =-0.1429-0.0825 0.1633 (  1780 PWs)   bands (ev):

    -7.2114  -6.6019  -2.1892   0.6461   8.3976   8.7331   9.2217   9.6407
    10.4556  10.8554  11.4841  12.2726  18.4172  20.5521  20.8203  21.8668
    22.1116  22.2289  22.2369  23.5022  24.0535  26.1241  26.9955  28.2948

          k =-0.2857 0.1650 0.0000 (  1804 PWs)   bands (ev):

    -6.2081  -3.2786  -3.2399   3.9161   4.6607   5.6784   6.6890   6.9491
     7.9999  10.0560  10.5152  11.3132  18.5642  20.0706  21.0772  21.9876
    22.4865  22.5854  23.7169  25.9522  26.8731  27.2072  27.3281  27.4756

          k = 0.0000 0.3299-0.0816 (  1809 PWs)   bands (ev):

    -6.0884  -4.2861  -2.0844   3.2486   4.5579   5.8383   6.2021   7.8949
     8.1687   9.3495  11.1345  11.5077  17.9402  20.4134  21.0799  21.6558
    21.7001  21.7828  24.9049  26.9079  26.9161  27.2584  27.7655  27.9559

          k =-0.2857 0.1650 0.0816 (  1809 PWs)   bands (ev):

    -6.0884  -4.2861  -2.0844   3.2486   4.5579   5.8383   6.2021   7.8949
     8.1687   9.3495  11.1345  11.5077  17.9402  20.4134  21.0799  21.6558
    21.7001  21.7828  24.9049  26.9079  26.9161  27.2584  27.7655  27.9559

          k =-0.2857-0.1650 0.0816 (  1809 PWs)   bands (ev):

    -6.0854  -4.3094  -2.0227   3.0821   4.1512   5.9973   7.5278   7.5291
     8.0435   9.7840  10.4584  10.7561  18.9476  19.0109  21.6832  22.5244
    23.2929  23.7267  23.8093  24.2771  25.1675  27.0910  27.5072  27.5484

          k = 0.0000 0.3299-0.1633 (  1792 PWs)   bands (ev):

    -5.7278  -5.1185  -0.9057   1.8703   4.6886   5.1008   7.5885   8.5431
     8.5438   8.7452  10.7950  11.4336  17.6162  19.8291  21.2872  21.7855
    21.9229  22.2925  25.9030  26.1708  26.1715  27.0584  27.7164  28.0883

          k =-0.2857 0.1650 0.1633 (  1792 PWs)   bands (ev):

    -5.7278  -5.1185  -0.9057   1.8703   4.6886   5.1008   7.5885   8.5431
     8.5438   8.7452  10.7950  11.4336  17.6162  19.8291  21.2872  21.7855
    21.9229  22.2925  25.9030  26.1708  26.1715  27.0584  27.7164  28.0883

          k =-0.2857-0.1650 0.1633 (  1792 PWs)   bands (ev):

    -5.7207  -5.1315  -0.8427   1.7358   4.5314   5.2189   8.0901   8.2989
     9.0985   9.3176   9.3454  11.2812  18.0054  19.3737  21.6171  22.0049
    22.8338  23.5114  25.0636  25.0791  25.2208  26.6393  27.5650  27.7887

          k =-0.4286 0.2474 0.0000 (  1808 PWs)   bands (ev):

    -3.8048  -1.5883  -0.8985   0.6896   2.1504   2.8155   6.8405   7.0920
     7.3180   9.3723   9.3855   9.5080  17.8789  18.8494  20.4247  20.5285
    23.8122  23.9708  24.2288  25.1654  26.9423  28.2902  29.7351  29.7739

          k = 0.0000 0.4949-0.0816 (  1810 PWs)   bands (ev):

    -3.7099  -1.9091  -0.9781   1.2988   1.8951   3.2633   5.7300   7.1777
     7.2173   8.6481  10.1814  10.3261  17.5929  19.2155  19.7369  21.2698
    22.5440  22.7329  25.8547  26.4439  26.9562  28.3994  29.3450  29.3492

          k =-0.4286 0.2474 0.0816 (  1810 PWs)   bands (ev):

    -3.7099  -1.9091  -0.9781   1.2988   1.8951   3.2633   5.7300   7.1777
     7.2173   8.6481  10.1814  10.3261  17.5929  19.2155  19.7369  21.2698
    22.5440  22.7329  25.8547  26.4439  26.9562  28.3994  29.3450  29.3492

          k =-0.4286-0.2474 0.0816 (  1810 PWs)   bands (ev):

    -3.6728  -2.2590   0.2627   0.4877   1.1626   3.8230   5.8781   7.1854
     8.1306   8.7641   8.8702  10.0801  18.2869  19.5134  19.7446  21.3140
    22.8364  23.6204  24.6538  25.3820  25.5401  28.8195  29.5094  29.7708

          k = 0.0000 0.4949-0.1633 (  1813 PWs)   bands (ev):

    -3.3994  -2.7190  -0.3849   1.1623   1.9242   4.3312   4.5516   6.9099
     7.5561   7.9918  10.5831  10.6316  17.9722  19.0690  20.3813  21.7888
    21.8608  22.2125  24.1167  27.4288  28.3675  28.3816  28.4476  28.7660

          k =-0.4286 0.2474 0.1633 (  1813 PWs)   bands (ev):

    -3.3994  -2.7190  -0.3849   1.1623   1.9242   4.3312   4.5516   6.9099
     7.5561   7.9918  10.5831  10.6316  17.9722  19.0690  20.3813  21.7888
    21.8608  22.2125  24.1167  27.4288  28.3675  28.3816  28.4476  28.7660

          k =-0.4286-0.2474 0.1633 (  1813 PWs)   bands (ev):

    -3.3105  -2.8969   0.2979   0.6734   1.4631   4.6138   4.7847   7.0431
     7.4911   8.0854  10.0887  10.5432  18.5874  18.6741  21.7242  21.8320
    21.9670  22.2982  22.5227  26.9890  27.1162  28.7061  28.8033  29.3409

          k = 0.2857 0.0000 0.0000 (  1788 PWs)   bands (ev):

    -6.7037  -3.7287  -3.7287   4.7699   4.7699   6.4912   6.4912   8.6112
     9.1413   9.1413   9.3862  12.3454  20.4502  21.0135  21.0135  21.8135
    21.9651  23.2797  23.2797  24.9873  24.9873  26.7732  26.7732  27.0042

          k =-0.1429 0.2474-0.0816 (  1798 PWs)   bands (ev):

    -6.5815  -4.7790  -2.5052   2.9976   6.1342   6.3205   7.2953   8.1023
     8.5186   9.8093   9.8237  11.9030  19.8911  20.0774  21.6113  22.2113
    22.5484  23.0998  23.6374  24.6847  25.7670  25.7886  26.6333  27.4270

          k = 0.2857 0.0000 0.0816 (  1798 PWs)   bands (ev):

    -6.5815  -4.7790  -2.5052   2.9976   6.1342   6.3205   7.2953   8.1023
     8.5186   9.8093   9.8237  11.9030  19.8911  20.0774  21.6113  22.2113
    22.5484  23.0998  23.6374  24.6847  25.7670  25.7886  26.6333  27.4270

          k =-0.1429 0.2474-0.1633 (  1806 PWs)   bands (ev):

    -6.2170  -5.6134  -1.3037   1.4807   6.3110   6.7731   7.3961   8.1347
     8.9077  10.0546  10.3559  10.8740  19.3011  19.3633  21.7764  23.0674
    23.1991  23.3302  23.7414  24.4750  25.0142  25.8015  26.7658  27.7550

          k = 0.2857 0.0000 0.1633 (  1806 PWs)   bands (ev):

    -6.2170  -5.6134  -1.3037   1.4807   6.3110   6.7731   7.3961   8.1347
     8.9077  10.0546  10.3559  10.8740  19.3011  19.3633  21.7764  23.0674
    23.1991  23.3302  23.7414  24.4750  25.0142  25.8015  26.7658  27.7550

          k =-0.2857 0.3299 0.0000 (  1803 PWs)   bands (ev):

    -4.7464  -1.9589  -1.8533   2.2810   3.5881   4.9258   6.0291   6.3084
     7.0035   7.7208   8.3155  10.8479  19.4292  21.4340  21.7177  21.7557
    22.1247  23.0778  24.3231  26.2417  26.9647  27.2057  27.6044  28.8997

          k = 0.4286 0.0825 0.0000 (  1803 PWs)   bands (ev):

    -4.7464  -1.9589  -1.8533   2.2810   3.5881   4.9258   6.0291   6.3084
     7.0035   7.7208   8.3155  10.8479  19.4292  21.4340  21.7177  21.7557
    22.1247  23.0778  24.3231  26.2417  26.9647  27.2057  27.6044  28.8997

          k =-0.1429 0.4124-0.0816 (  1806 PWs)   bands (ev):

    -4.6318  -2.8656  -0.8676   2.3064   4.0501   4.3642   4.8616   6.6190
     7.4717   7.8138   8.5659  10.9709  18.6172  21.7410  21.8651  21.9985
    22.0254  23.5336  23.7921  26.4721  27.2907  27.6762  27.7156  27.8943

          k =-0.2857 0.3299 0.0816 (  1806 PWs)   bands (ev):

    -4.6318  -2.8656  -0.8676   2.3064   4.0501   4.3642   4.8616   6.6190
     7.4717   7.8138   8.5659  10.9709  18.6172  21.7410  21.8651  21.9985
    22.0254  23.5336  23.7921  26.4721  27.2907  27.6762  27.7156  27.8943

          k = 0.4286 0.0825 0.0816 (  1806 PWs)   bands (ev):

    -4.6318  -2.8656  -0.8676   2.3064   4.0501   4.3642   4.8616   6.6190
     7.4717   7.8138   8.5659  10.9709  18.6172  21.7410  21.8651  21.9985
    22.0254  23.5336  23.7921  26.4721  27.2907  27.6762  27.7156  27.8943

          k =-0.4286-0.0825 0.0816 (  1806 PWs)   bands (ev):

    -4.6245  -2.9256  -0.6861   2.4064   2.6999   5.4875   5.7294   6.2172
     7.0152   7.8270   9.0866  10.0781  20.6578  20.7058  20.8268  21.7728
    23.0413  23.5471  25.3052  25.6095  25.6586  26.7562  26.9644  28.9142

          k = 0.2857-0.3299 0.0816 (  1806 PWs)   bands (ev):

    -4.6245  -2.9256  -0.6861   2.4064   2.6999   5.4875   5.7294   6.2172
     7.0152   7.8270   9.0866  10.0781  20.6578  20.7058  20.8268  21.7728
    23.0413  23.5471  25.3052  25.6095  25.6586  26.7562  26.9644  28.9142

          k =-0.1429 0.4124-0.1633 (  1806 PWs)   bands (ev):

    -4.2836  -3.6769   0.2080   2.0757   3.3047   4.0867   5.0383   6.7607
     7.3276   8.1758   9.2390  10.3609  18.7771  20.9658  21.5494  22.4290
    22.7372  23.7751  25.1375  26.1929  26.3581  26.8575  27.1347  27.4145

          k =-0.2857 0.3299 0.1633 (  1806 PWs)   bands (ev):

    -4.2836  -3.6769   0.2080   2.0757   3.3047   4.0867   5.0383   6.7607
     7.3276   8.1758   9.2390  10.3609  18.7771  20.9658  21.5494  22.4290
    22.7372  23.7751  25.1375  26.1929  26.3581  26.8575  27.1347  27.4145

          k = 0.4286 0.0825 0.1633 (  1806 PWs)   bands (ev):

    -4.2836  -3.6769   0.2080   2.0757   3.3047   4.0867   5.0383   6.7607
     7.3276   8.1758   9.2390  10.3609  18.7771  20.9658  21.5494  22.4290
    22.7372  23.7751  25.1375  26.1929  26.3581  26.8575  27.1347  27.4145

          k =-0.4286-0.0825 0.1633 (  1806 PWs)   bands (ev):

    -4.2663  -3.7098   0.4235   1.8643   2.7483   4.5427   5.6575   6.2890
     7.1611   9.0097   9.2156   9.4765  19.6974  20.3924  21.1577  23.4731
    23.5076  23.8488  24.1387  24.8035  26.5884  26.6001  26.8785  27.8934

          k = 0.2857-0.3299 0.1633 (  1806 PWs)   bands (ev):

    -4.2663  -3.7098   0.4235   1.8643   2.7483   4.5427   5.6575   6.2890
     7.1611   9.0097   9.2156   9.4765  19.6974  20.3924  21.1577  23.4731
    23.5076  23.8488  24.1387  24.8035  26.5884  26.6001  26.8785  27.8934

          k =-0.4286 0.4124 0.0000 (  1802 PWs)   bands (ev):

    -2.0682  -2.0682   0.6692   0.8988   1.5858   1.5858   5.3869   7.0231
     7.0231   7.2910   9.0619   9.0619  18.3994  20.5138  21.5983  21.5983
    22.7981  22.7981  26.0415  26.0415  28.0248  28.0248  29.2309  29.6445

          k =-0.4286 0.4124 0.0816 (  1804 PWs)   bands (ev):

    -2.0868  -1.8885  -0.1644   0.7630   1.8405   2.5599   5.5290   6.0448
     6.9220   7.9976   8.0435   9.7748  18.9748  20.6652  21.0965  21.5969
    23.1995  23.3867  24.5280  25.8142  27.8097  28.7034  28.7603  29.3914

          k = 0.5714 0.1650 0.0816 (  1804 PWs)   bands (ev):

    -2.0868  -1.8885  -0.1644   0.7630   1.8405   2.5599   5.5290   6.0448
     6.9220   7.9976   8.0435   9.7748  18.9748  20.6652  21.0965  21.5969
    23.1995  23.3867  24.5280  25.8142  27.8097  28.7034  28.7603  29.3914

          k =-0.4286 0.4124 0.1633 (  1801 PWs)   bands (ev):

    -2.0321  -1.5132  -0.9347   0.2737   2.8423   3.2555   5.4461   5.7452
     6.3337   6.9519   8.8841   9.8999  20.2033  21.0033  21.3484  21.3535
    22.6534  23.0873  23.9209  25.5896  27.2922  28.5952  28.7721  29.0870

          k = 0.5714 0.1650 0.1633 (  1801 PWs)   bands (ev):

    -2.0321  -1.5132  -0.9347   0.2737   2.8423   3.2555   5.4461   5.7452
     6.3337   6.9519   8.8841   9.8999  20.2033  21.0033  21.3484  21.3535
    22.6534  23.0873  23.9209  25.5896  27.2922  28.5952  28.7721  29.0870

          k = 0.5714 0.0000 0.0000 (  1816 PWs)   bands (ev):

    -2.4377  -0.2948  -0.2948   1.7000   1.7000   3.5693   4.5014   4.5014
     4.7071   8.0619   8.0619   9.5438  19.6316  19.6316  20.5991  24.5784
    25.4039  25.4039  26.5609  26.5609  27.0466  27.5720  28.1361  28.1361

          k =-0.2857 0.4949-0.0816 (  1803 PWs)   bands (ev):

    -2.3308  -0.9115   0.1856   1.6289   1.9477   3.0510   4.0366   5.3359
     5.4052   7.1503   8.3635   9.1921  19.5174  20.7810  21.1176  23.8901
    25.2493  25.5566  26.2633  26.3270  26.7352  27.4153  27.5354  27.6497

          k = 0.5714 0.0000 0.0816 (  1803 PWs)   bands (ev):

    -2.3308  -0.9115   0.1856   1.6289   1.9477   3.0510   4.0366   5.3359
     5.4052   7.1503   8.3635   9.1921  19.5174  20.7810  21.1176  23.8901
    25.2493  25.5566  26.2633  26.3270  26.7352  27.4153  27.5354  27.6497

          k =-0.2857 0.4949-0.1633 (  1807 PWs)   bands (ev):

    -2.0190  -1.5265   0.4753   1.8661   1.9660   2.3658   4.3443   6.0979
     6.2182   6.2926   8.1237   8.4165  20.4765  21.8617  22.5059  22.9368
    24.5252  24.5692  25.9391  26.0067  26.2993  26.4019  27.4695  27.6202

          k = 0.5714 0.0000 0.1633 (  1807 PWs)   bands (ev):

    -2.0190  -1.5265   0.4753   1.8661   1.9660   2.3658   4.3443   6.0979
     6.2182   6.2926   8.1237   8.4165  20.4765  21.8617  22.5059  22.9368
    24.5252  24.5692  25.9391  26.0067  26.2993  26.4019  27.4695  27.6202

     highest occupied, lowest unoccupied level (ev):    13.3566   17.5929

!    total energy              =     -68.26966807 Ry
     Harris-Foulkes estimate   =     -68.26966807 Ry
     estimated scf accuracy    <          8.2E-11 Ry

     The total energy is the sum of the following terms:

     one-electron contribution =      23.92039920 Ry
     hartree contribution      =       5.70435362 Ry
     xc contribution           =     -21.16852146 Ry
     ewald contribution        =     -76.72589944 Ry

     convergence has been achieved in   9 iterations

     Writing output data file diam.bulk.save/
 
     init_run     :      0.24s CPU      0.25s WALL (       1 calls)
     electrons    :      3.38s CPU      3.76s WALL (       1 calls)

     Called by init_run:
     wfcinit      :      0.14s CPU      0.15s WALL (       1 calls)
     potinit      :      0.03s CPU      0.04s WALL (       1 calls)
     hinit0       :      0.06s CPU      0.06s WALL (       1 calls)

     Called by electrons:
     c_bands      :      2.66s CPU      2.92s WALL (       9 calls)
     sum_band     :      0.50s CPU      0.52s WALL (       9 calls)
     v_of_rho     :      0.17s CPU      0.21s WALL (      10 calls)
     mix_rho      :      0.05s CPU      0.07s WALL (       9 calls)

     Called by c_bands:
     init_us_2    :      0.02s CPU      0.04s WALL (      95 calls)
     cegterg      :      2.55s CPU      2.63s WALL (      45 calls)

     Called by sum_band:

     Called by *egterg:
     h_psi        :      2.14s CPU      2.18s WALL (     125 calls)
     g_psi        :      0.03s CPU      0.03s WALL (      75 calls)
     cdiaghg      :      0.11s CPU      0.12s WALL (     120 calls)

     Called by h_psi:
     h_psi:pot    :      2.12s CPU      2.13s WALL (     125 calls)
     h_psi:calbec :      0.06s CPU      0.06s WALL (     125 calls)
     vloc_psi     :      2.01s CPU      2.02s WALL (     125 calls)
     add_vuspsi   :      0.05s CPU      0.05s WALL (     125 calls)

     General routines
     calbec       :      0.06s CPU      0.06s WALL (     125 calls)
     fft          :      0.03s CPU      0.04s WALL (      99 calls)
     ffts         :      0.00s CPU      0.00s WALL (       9 calls)
     fftw         :      2.13s CPU      2.12s WALL (    6244 calls)
 
     Parallel routines
 
     PWSCF        :      3.75s CPU      5.04s WALL

 
   This run was terminated on:  14:47:32   6Oct2019            

=------------------------------------------------------------------------------=
   JOB DONE.
=------------------------------------------------------------------------------=
