
     Program PWSCF v.6.4.1 starts on  6Oct2019 at 14:47:38 

     This program is part of the open-source Quantum ESPRESSO suite
     for quantum simulation of materials; please cite
         "P. Giannozzi et al., J. Phys.:Condens. Matter 21 395502 (2009);
         "P. Giannozzi et al., J. Phys.:Condens. Matter 29 465901 (2017);
          URL http://www.quantum-espresso.org", 
     in publications or presentations arising from this work. More details at
     http://www.quantum-espresso.org/quote

     Parallel version (MPI), running on    16 processors

     MPI processes distributed on     1 nodes
     K-points division:     npool     =      16
     Waiting for input...
     Reading input from standard input

     Current dimensions of program PWSCF are:
     Max number of different atomic species (ntypx) = 10
     Max number of k-points (npk) =  40000
     Max angular momentum in pseudopotentials (lmaxx) =  3

     Atomic positions and unit cell read from directory:
     temp/diam.bulk.save/                                                                                                                                                                                                                                            
 

     Subspace diagonalization in iterative solution of the eigenvalue problem:
     a serial algorithm will be used

     Found symmetry operation: I + ( -0.3333  0.3333  0.3333)
     This is a supercell, fractional translations are disabled
 
     G-vector sticks info
     --------------------
     sticks:   dense  smooth     PW     G-vecs:    dense   smooth      PW
     Sum         379     379    151                14535    14535    3787
 


     bravais-lattice index     =            4
     lattice parameter (alat)  =       4.7659  a.u.
     unit-cell volume          =     229.6366 (a.u.)^3
     number of atoms/cell      =            6
     number of atomic types    =            1
     number of electrons       =        24.00
     number of Kohn-Sham states=           30
     kinetic-energy cutoff     =      60.0000  Ry
     charge density cutoff     =     240.0000  Ry
     Exchange-correlation= PBESOL
                           (   1   4  10   8   0   0   0)

     celldm(1)=   4.765900  celldm(2)=   0.000000  celldm(3)=   2.449490
     celldm(4)=   0.000000  celldm(5)=   0.000000  celldm(6)=   0.000000

     crystal axes: (cart. coord. in units of alat)
               a(1) = (   1.000000   0.000000   0.000000 )  
               a(2) = (  -0.500000   0.866025   0.000000 )  
               a(3) = (   0.000000   0.000000   2.449490 )  

     reciprocal axes: (cart. coord. in units 2 pi/alat)
               b(1) = (  1.000000  0.577350  0.000000 )  
               b(2) = (  0.000000  1.154701  0.000000 )  
               b(3) = (  0.000000  0.000000  0.408248 )  


     PseudoPot. # 1 for C  read from file:
     ../pseudo/C.rel-pbesol-nc.UPF
     MD5 check sum: f9fc97e0a2262c405c2ea375396131e1
     Pseudo is Norm-conserving, Zval =  4.0
     Generated using "atomic" code by A. Dal Corso v.5.0.99 svn rev. 10869
     Using radial grid of 1073 points,  1 beta functions with: 
                l(1) =   1

     atomic species   valence    mass     pseudopotential
        C              4.00    12.00000     C ( 1.00)

      2 Sym. Ops. (no inversion) found


                                    s                        frac. trans.

      isym =  1     identity                                     

 cryst.   s( 1) = (     1          0          0      )
                  (     0          1          0      )
                  (     0          0          1      )

 cart.    s( 1) = (  1.0000000  0.0000000  0.0000000 )
                  (  0.0000000  1.0000000  0.0000000 )
                  (  0.0000000  0.0000000  1.0000000 )


      isym =  2     180 deg rotation - cart. axis [1,0,0]        

 cryst.   s( 2) = (     1          0          0      )
                  (    -1         -1          0      )
                  (     0          0         -1      )

 cart.    s( 2) = (  1.0000000  0.0000000  0.0000000 )
                  (  0.0000000 -1.0000000  0.0000000 )
                  (  0.0000000  0.0000000 -1.0000000 )


     point group C_2  (2)   
     there are  2 classes
     the character table:

       E     C2   
A      1.00  1.00
B      1.00 -1.00

     the symmetry operations in each class and the name of the first element:

     E        1
          identity                                               
     C2       2
          180 deg rotation - cart. axis [1,0,0]                  

   Cartesian axes

     site n.     atom                  positions (alat units)
         1           C   tau(   1) = (   0.1666666  -0.2886751  -1.1226828  )
         2           C   tau(   2) = (   0.1666666  -0.2886751  -0.5103103  )
         3           C   tau(   3) = (  -0.3333333   0.0000000  -0.3061862  )
         4           C   tau(   4) = (  -0.3333333   0.0000000   0.3061862  )
         5           C   tau(   5) = (   0.1666666   0.2886751   0.5103103  )
         6           C   tau(   6) = (   0.1666666   0.2886751   1.1226828  )

   Crystallographic axes

     site n.     atom                  positions (cryst. coord.)
         1           C   tau(   1) = ( -0.0000000 -0.3333333 -0.4583333  )
         2           C   tau(   2) = ( -0.0000000 -0.3333333 -0.2083333  )
         3           C   tau(   3) = ( -0.3333333  0.0000000 -0.1250000  )
         4           C   tau(   4) = ( -0.3333333  0.0000000  0.1250000  )
         5           C   tau(   5) = (  0.3333333  0.3333333  0.2083333  )
         6           C   tau(   6) = (  0.3333333  0.3333333  0.4583333  )

     number of k points=   100  Methfessel-Paxton smearing, width (Ry)=  0.0100
                       cart. coord. in units 2pi/alat
        k(    1) = (   0.0000000   0.0000000   0.0000000), wk =   0.0200000
        k(    2) = (   0.0000000   0.0000000   0.1020621), wk =   0.0200000
        k(    3) = (   0.0000000   0.0000000   0.2041241), wk =   0.0200000
        k(    4) = (   0.0000000   0.0000000   0.3061862), wk =   0.0200000
        k(    5) = (   0.0000000   0.2309401   0.0000000), wk =   0.0200000
        k(    6) = (   0.0000000   0.2309401   0.1020621), wk =   0.0200000
        k(    7) = (   0.0000000   0.2309401   0.2041241), wk =   0.0200000
        k(    8) = (   0.0000000   0.2309401   0.3061862), wk =   0.0200000
        k(    9) = (   0.0000000   0.4618802   0.0000000), wk =   0.0200000
        k(   10) = (   0.0000000   0.4618802   0.1020621), wk =   0.0200000
        k(   11) = (   0.0000000   0.4618802   0.2041241), wk =   0.0200000
        k(   12) = (   0.0000000   0.4618802   0.3061862), wk =   0.0200000
        k(   13) = (   0.0000000   0.6928203   0.0000000), wk =   0.0200000
        k(   14) = (   0.0000000   0.6928203   0.1020621), wk =   0.0200000
        k(   15) = (   0.0000000   0.6928203   0.2041241), wk =   0.0200000
        k(   16) = (   0.0000000   0.6928203   0.3061862), wk =   0.0200000
        k(   17) = (   0.0000000   0.9237604   0.0000000), wk =   0.0200000
        k(   18) = (   0.0000000   0.9237604   0.1020621), wk =   0.0200000
        k(   19) = (   0.0000000   0.9237604   0.2041241), wk =   0.0200000
        k(   20) = (   0.0000000   0.9237604   0.3061862), wk =   0.0200000
        k(   21) = (   0.2000000   0.1154701   0.0000000), wk =   0.0200000
        k(   22) = (   0.2000000   0.1154701   0.1020621), wk =   0.0200000
        k(   23) = (   0.2000000   0.1154701   0.2041241), wk =   0.0200000
        k(   24) = (   0.2000000   0.1154701   0.3061862), wk =   0.0200000
        k(   25) = (   0.2000000   0.3464102   0.0000000), wk =   0.0200000
        k(   26) = (   0.2000000   0.3464102   0.1020621), wk =   0.0200000
        k(   27) = (   0.2000000   0.3464102   0.2041241), wk =   0.0200000
        k(   28) = (   0.2000000   0.3464102   0.3061862), wk =   0.0200000
        k(   29) = (   0.2000000   0.5773503   0.0000000), wk =   0.0200000
        k(   30) = (   0.2000000   0.5773503   0.1020621), wk =   0.0200000
        k(   31) = (   0.2000000   0.5773503   0.2041241), wk =   0.0200000
        k(   32) = (   0.2000000   0.5773503   0.3061862), wk =   0.0200000
        k(   33) = (   0.2000000   0.8082904   0.0000000), wk =   0.0200000
        k(   34) = (   0.2000000   0.8082904   0.1020621), wk =   0.0200000
        k(   35) = (   0.2000000   0.8082904   0.2041241), wk =   0.0200000
        k(   36) = (   0.2000000   0.8082904   0.3061862), wk =   0.0200000
        k(   37) = (   0.2000000   1.0392305   0.0000000), wk =   0.0200000
        k(   38) = (   0.2000000   1.0392305   0.1020621), wk =   0.0200000
        k(   39) = (   0.2000000   1.0392305   0.2041241), wk =   0.0200000
        k(   40) = (   0.2000000   1.0392305   0.3061862), wk =   0.0200000
        k(   41) = (   0.4000000   0.2309401   0.0000000), wk =   0.0200000
        k(   42) = (   0.4000000   0.2309401   0.1020621), wk =   0.0200000
        k(   43) = (   0.4000000   0.2309401   0.2041241), wk =   0.0200000
        k(   44) = (   0.4000000   0.2309401   0.3061862), wk =   0.0200000
        k(   45) = (   0.4000000   0.4618802   0.0000000), wk =   0.0200000
        k(   46) = (   0.4000000   0.4618802   0.1020621), wk =   0.0200000
        k(   47) = (   0.4000000   0.4618802   0.2041241), wk =   0.0200000
        k(   48) = (   0.4000000   0.4618802   0.3061862), wk =   0.0200000
        k(   49) = (   0.4000000   0.6928203   0.0000000), wk =   0.0200000
        k(   50) = (   0.4000000   0.6928203   0.1020621), wk =   0.0200000
        k(   51) = (   0.4000000   0.6928203   0.2041241), wk =   0.0200000
        k(   52) = (   0.4000000   0.6928203   0.3061862), wk =   0.0200000
        k(   53) = (   0.4000000   0.9237604   0.0000000), wk =   0.0200000
        k(   54) = (   0.4000000   0.9237604   0.1020621), wk =   0.0200000
        k(   55) = (   0.4000000   0.9237604   0.2041241), wk =   0.0200000
        k(   56) = (   0.4000000   0.9237604   0.3061862), wk =   0.0200000
        k(   57) = (   0.4000000   1.1547005   0.0000000), wk =   0.0200000
        k(   58) = (   0.4000000   1.1547005   0.1020621), wk =   0.0200000
        k(   59) = (   0.4000000   1.1547005   0.2041241), wk =   0.0200000
        k(   60) = (   0.4000000   1.1547005   0.3061862), wk =   0.0200000
        k(   61) = (   0.6000000   0.3464102   0.0000000), wk =   0.0200000
        k(   62) = (   0.6000000   0.3464102   0.1020621), wk =   0.0200000
        k(   63) = (   0.6000000   0.3464102   0.2041241), wk =   0.0200000
        k(   64) = (   0.6000000   0.3464102   0.3061862), wk =   0.0200000
        k(   65) = (   0.6000000   0.5773503   0.0000000), wk =   0.0200000
        k(   66) = (   0.6000000   0.5773503   0.1020621), wk =   0.0200000
        k(   67) = (   0.6000000   0.5773503   0.2041241), wk =   0.0200000
        k(   68) = (   0.6000000   0.5773503   0.3061862), wk =   0.0200000
        k(   69) = (   0.6000000   0.8082904   0.0000000), wk =   0.0200000
        k(   70) = (   0.6000000   0.8082904   0.1020621), wk =   0.0200000
        k(   71) = (   0.6000000   0.8082904   0.2041241), wk =   0.0200000
        k(   72) = (   0.6000000   0.8082904   0.3061862), wk =   0.0200000
        k(   73) = (   0.6000000   1.0392305   0.0000000), wk =   0.0200000
        k(   74) = (   0.6000000   1.0392305   0.1020621), wk =   0.0200000
        k(   75) = (   0.6000000   1.0392305   0.2041241), wk =   0.0200000
        k(   76) = (   0.6000000   1.0392305   0.3061862), wk =   0.0200000
        k(   77) = (   0.6000000   1.2701706   0.0000000), wk =   0.0200000
        k(   78) = (   0.6000000   1.2701706   0.1020621), wk =   0.0200000
        k(   79) = (   0.6000000   1.2701706   0.2041241), wk =   0.0200000
        k(   80) = (   0.6000000   1.2701706   0.3061862), wk =   0.0200000
        k(   81) = (   0.8000000   0.4618802   0.0000000), wk =   0.0200000
        k(   82) = (   0.8000000   0.4618802   0.1020621), wk =   0.0200000
        k(   83) = (   0.8000000   0.4618802   0.2041241), wk =   0.0200000
        k(   84) = (   0.8000000   0.4618802   0.3061862), wk =   0.0200000
        k(   85) = (   0.8000000   0.6928203   0.0000000), wk =   0.0200000
        k(   86) = (   0.8000000   0.6928203   0.1020621), wk =   0.0200000
        k(   87) = (   0.8000000   0.6928203   0.2041241), wk =   0.0200000
        k(   88) = (   0.8000000   0.6928203   0.3061862), wk =   0.0200000
        k(   89) = (   0.8000000   0.9237604   0.0000000), wk =   0.0200000
        k(   90) = (   0.8000000   0.9237604   0.1020621), wk =   0.0200000
        k(   91) = (   0.8000000   0.9237604   0.2041241), wk =   0.0200000
        k(   92) = (   0.8000000   0.9237604   0.3061862), wk =   0.0200000
        k(   93) = (   0.8000000   1.1547005   0.0000000), wk =   0.0200000
        k(   94) = (   0.8000000   1.1547005   0.1020621), wk =   0.0200000
        k(   95) = (   0.8000000   1.1547005   0.2041241), wk =   0.0200000
        k(   96) = (   0.8000000   1.1547005   0.3061862), wk =   0.0200000
        k(   97) = (   0.8000000   1.3856406   0.0000000), wk =   0.0200000
        k(   98) = (   0.8000000   1.3856406   0.1020621), wk =   0.0200000
        k(   99) = (   0.8000000   1.3856406   0.2041241), wk =   0.0200000
        k(  100) = (   0.8000000   1.3856406   0.3061862), wk =   0.0200000

                       cryst. coord.
        k(    1) = (   0.0000000   0.0000000   0.0000000), wk =   0.0200000
        k(    2) = (   0.0000000   0.0000000   0.2500000), wk =   0.0200000
        k(    3) = (   0.0000000   0.0000000   0.5000000), wk =   0.0200000
        k(    4) = (   0.0000000   0.0000000   0.7500000), wk =   0.0200000
        k(    5) = (   0.0000000   0.2000000   0.0000000), wk =   0.0200000
        k(    6) = (   0.0000000   0.2000000   0.2500000), wk =   0.0200000
        k(    7) = (   0.0000000   0.2000000   0.5000000), wk =   0.0200000
        k(    8) = (   0.0000000   0.2000000   0.7500000), wk =   0.0200000
        k(    9) = (   0.0000000   0.4000000   0.0000000), wk =   0.0200000
        k(   10) = (   0.0000000   0.4000000   0.2500000), wk =   0.0200000
        k(   11) = (   0.0000000   0.4000000   0.5000000), wk =   0.0200000
        k(   12) = (   0.0000000   0.4000000   0.7500000), wk =   0.0200000
        k(   13) = (   0.0000000   0.6000000   0.0000000), wk =   0.0200000
        k(   14) = (   0.0000000   0.6000000   0.2500000), wk =   0.0200000
        k(   15) = (   0.0000000   0.6000000   0.5000000), wk =   0.0200000
        k(   16) = (   0.0000000   0.6000000   0.7500000), wk =   0.0200000
        k(   17) = (   0.0000000   0.8000000   0.0000000), wk =   0.0200000
        k(   18) = (   0.0000000   0.8000000   0.2500000), wk =   0.0200000
        k(   19) = (   0.0000000   0.8000000   0.5000000), wk =   0.0200000
        k(   20) = (   0.0000000   0.8000000   0.7500000), wk =   0.0200000
        k(   21) = (   0.2000000   0.0000000   0.0000000), wk =   0.0200000
        k(   22) = (   0.2000000   0.0000000   0.2500000), wk =   0.0200000
        k(   23) = (   0.2000000   0.0000000   0.5000000), wk =   0.0200000
        k(   24) = (   0.2000000   0.0000000   0.7500000), wk =   0.0200000
        k(   25) = (   0.2000000   0.2000000   0.0000000), wk =   0.0200000
        k(   26) = (   0.2000000   0.2000000   0.2500000), wk =   0.0200000
        k(   27) = (   0.2000000   0.2000000   0.5000000), wk =   0.0200000
        k(   28) = (   0.2000000   0.2000000   0.7500000), wk =   0.0200000
        k(   29) = (   0.2000000   0.4000000   0.0000000), wk =   0.0200000
        k(   30) = (   0.2000000   0.4000000   0.2500000), wk =   0.0200000
        k(   31) = (   0.2000000   0.4000000   0.5000000), wk =   0.0200000
        k(   32) = (   0.2000000   0.4000000   0.7500000), wk =   0.0200000
        k(   33) = (   0.2000000   0.6000000   0.0000000), wk =   0.0200000
        k(   34) = (   0.2000000   0.6000000   0.2500000), wk =   0.0200000
        k(   35) = (   0.2000000   0.6000000   0.5000000), wk =   0.0200000
        k(   36) = (   0.2000000   0.6000000   0.7500000), wk =   0.0200000
        k(   37) = (   0.2000000   0.8000000   0.0000000), wk =   0.0200000
        k(   38) = (   0.2000000   0.8000000   0.2500000), wk =   0.0200000
        k(   39) = (   0.2000000   0.8000000   0.5000000), wk =   0.0200000
        k(   40) = (   0.2000000   0.8000000   0.7500000), wk =   0.0200000
        k(   41) = (   0.4000000   0.0000000   0.0000000), wk =   0.0200000
        k(   42) = (   0.4000000   0.0000000   0.2500000), wk =   0.0200000
        k(   43) = (   0.4000000   0.0000000   0.5000000), wk =   0.0200000
        k(   44) = (   0.4000000   0.0000000   0.7500000), wk =   0.0200000
        k(   45) = (   0.4000000   0.2000000   0.0000000), wk =   0.0200000
        k(   46) = (   0.4000000   0.2000000   0.2500000), wk =   0.0200000
        k(   47) = (   0.4000000   0.2000000   0.5000000), wk =   0.0200000
        k(   48) = (   0.4000000   0.2000000   0.7500000), wk =   0.0200000
        k(   49) = (   0.4000000   0.4000000   0.0000000), wk =   0.0200000
        k(   50) = (   0.4000000   0.4000000   0.2500000), wk =   0.0200000
        k(   51) = (   0.4000000   0.4000000   0.5000000), wk =   0.0200000
        k(   52) = (   0.4000000   0.4000000   0.7500000), wk =   0.0200000
        k(   53) = (   0.4000000   0.6000000   0.0000000), wk =   0.0200000
        k(   54) = (   0.4000000   0.6000000   0.2500000), wk =   0.0200000
        k(   55) = (   0.4000000   0.6000000   0.5000000), wk =   0.0200000
        k(   56) = (   0.4000000   0.6000000   0.7500000), wk =   0.0200000
        k(   57) = (   0.4000000   0.8000000   0.0000000), wk =   0.0200000
        k(   58) = (   0.4000000   0.8000000   0.2500000), wk =   0.0200000
        k(   59) = (   0.4000000   0.8000000   0.5000000), wk =   0.0200000
        k(   60) = (   0.4000000   0.8000000   0.7500000), wk =   0.0200000
        k(   61) = (   0.6000000   0.0000000   0.0000000), wk =   0.0200000
        k(   62) = (   0.6000000   0.0000000   0.2500000), wk =   0.0200000
        k(   63) = (   0.6000000   0.0000000   0.5000000), wk =   0.0200000
        k(   64) = (   0.6000000   0.0000000   0.7500000), wk =   0.0200000
        k(   65) = (   0.6000000   0.2000000   0.0000000), wk =   0.0200000
        k(   66) = (   0.6000000   0.2000000   0.2500000), wk =   0.0200000
        k(   67) = (   0.6000000   0.2000000   0.5000000), wk =   0.0200000
        k(   68) = (   0.6000000   0.2000000   0.7500000), wk =   0.0200000
        k(   69) = (   0.6000000   0.4000000   0.0000000), wk =   0.0200000
        k(   70) = (   0.6000000   0.4000000   0.2500000), wk =   0.0200000
        k(   71) = (   0.6000000   0.4000000   0.5000000), wk =   0.0200000
        k(   72) = (   0.6000000   0.4000000   0.7500000), wk =   0.0200000
        k(   73) = (   0.6000000   0.6000000   0.0000000), wk =   0.0200000
        k(   74) = (   0.6000000   0.6000000   0.2500000), wk =   0.0200000
        k(   75) = (   0.6000000   0.6000000   0.5000000), wk =   0.0200000
        k(   76) = (   0.6000000   0.6000000   0.7500000), wk =   0.0200000
        k(   77) = (   0.6000000   0.8000000   0.0000000), wk =   0.0200000
        k(   78) = (   0.6000000   0.8000000   0.2500000), wk =   0.0200000
        k(   79) = (   0.6000000   0.8000000   0.5000000), wk =   0.0200000
        k(   80) = (   0.6000000   0.8000000   0.7500000), wk =   0.0200000
        k(   81) = (   0.8000000   0.0000000   0.0000000), wk =   0.0200000
        k(   82) = (   0.8000000   0.0000000   0.2500000), wk =   0.0200000
        k(   83) = (   0.8000000   0.0000000   0.5000000), wk =   0.0200000
        k(   84) = (   0.8000000   0.0000000   0.7500000), wk =   0.0200000
        k(   85) = (   0.8000000   0.2000000   0.0000000), wk =   0.0200000
        k(   86) = (   0.8000000   0.2000000   0.2500000), wk =   0.0200000
        k(   87) = (   0.8000000   0.2000000   0.5000000), wk =   0.0200000
        k(   88) = (   0.8000000   0.2000000   0.7500000), wk =   0.0200000
        k(   89) = (   0.8000000   0.4000000   0.0000000), wk =   0.0200000
        k(   90) = (   0.8000000   0.4000000   0.2500000), wk =   0.0200000
        k(   91) = (   0.8000000   0.4000000   0.5000000), wk =   0.0200000
        k(   92) = (   0.8000000   0.4000000   0.7500000), wk =   0.0200000
        k(   93) = (   0.8000000   0.6000000   0.0000000), wk =   0.0200000
        k(   94) = (   0.8000000   0.6000000   0.2500000), wk =   0.0200000
        k(   95) = (   0.8000000   0.6000000   0.5000000), wk =   0.0200000
        k(   96) = (   0.8000000   0.6000000   0.7500000), wk =   0.0200000
        k(   97) = (   0.8000000   0.8000000   0.0000000), wk =   0.0200000
        k(   98) = (   0.8000000   0.8000000   0.2500000), wk =   0.0200000
        k(   99) = (   0.8000000   0.8000000   0.5000000), wk =   0.0200000
        k(  100) = (   0.8000000   0.8000000   0.7500000), wk =   0.0200000

     Dense  grid:    14535 G-vectors     FFT dimensions: (  24,  24,  60)

     Dynamical RAM for                 wfc:       0.82 MB

     Dynamical RAM for     wfc (w. buffer):       0.82 MB

     Dynamical RAM for           str. fact:       0.22 MB

     Dynamical RAM for           local pot:       0.00 MB

     Dynamical RAM for          nlocal pot:       0.49 MB

     Dynamical RAM for                qrad:       0.03 MB

     Dynamical RAM for          rho,v,vnew:       1.46 MB

     Dynamical RAM for           G-vectors:       0.94 MB

     Dynamical RAM for          h,s,v(r/c):       0.66 MB

     Dynamical RAM for          <psi|beta>:       0.01 MB

     Dynamical RAM for                 psi:       3.30 MB

     Dynamical RAM for                hpsi:       3.30 MB

     Dynamical RAM for      wfcinit/wfcrot:       1.67 MB

     Estimated static dynamical RAM per process >       5.73 MB

     Estimated max dynamical RAM per process >      13.00 MB

     Estimated total dynamical RAM >     207.94 MB

     The potential is recalculated from file :
     temp/diam.bulk.save/charge-density

     Starting wfcs are   24 randomized atomic wfcs +    6 random wfcs

     Band Structure Calculation
     Davidson diagonalization with overlap

     Computing kpt #:     1  of     7 on this pool
     total cpu time spent up to now is        1.0 secs

     Computing kpt #:     2  of     7 on this pool
     total cpu time spent up to now is        1.6 secs

     Computing kpt #:     3  of     7 on this pool
     total cpu time spent up to now is        2.1 secs

     Computing kpt #:     4  of     7 on this pool
     total cpu time spent up to now is        2.7 secs

     Computing kpt #:     5  of     7 on this pool
     total cpu time spent up to now is        3.2 secs

     Computing kpt #:     6  of     7 on this pool
     total cpu time spent up to now is        3.8 secs

     Computing kpt #:     7  of     7 on this pool
     total cpu time spent up to now is        4.3 secs

     ethr =  4.17E-13,  avg # of iterations = 15.9

     total cpu time spent up to now is        4.3 secs

     End of band structure calculation

          k = 0.0000 0.0000 0.0000 (  1811 PWs)   bands (ev):

    -8.2078  -5.1725  -5.1725   3.9257   3.9257  11.0049  11.0049  11.0049
    11.0049  13.3562  13.3565  13.3565  18.9380  18.9386  18.9386  21.6498
    21.6498  21.6498  21.6498  21.9682  21.9682  26.5752  28.4232  28.4232
    32.2225  33.9822  33.9822  36.8651  36.8651  36.8651

          k = 0.0000 0.0000 0.1021 (  1793 PWs)   bands (ev):

    -8.0144  -6.4833  -3.5756   1.3972   6.7247  10.6392  10.6392  11.5883
    11.5883  12.1258  13.0294  13.0294  19.3661  19.3661  19.6643  21.1546
    21.1546  21.5304  21.8166  21.8166  22.1908  26.7365  27.8380  28.7492
    32.5506  33.7086  34.5302  36.0767  36.0767  37.7279

          k = 0.0000 0.0000 0.2041 (  1780 PWs)   bands (ev):

    -7.4368  -7.4368  -2.3541  -0.1441   9.5775   9.5775  10.5158  10.5158
    12.3227  12.3227  12.3227  12.3227  20.2923  20.2923  20.2923  20.2923
    20.7687  20.7687  21.8403  21.8403  22.2593  27.1975  27.1975  28.8356
    33.2452  33.2452  34.9897  36.5203  36.5203  36.5203

          k = 0.0000 0.0000 0.3062 (  1793 PWs)   bands (ev):

    -8.0144  -6.4833  -3.5756   1.3972   6.7247  10.6392  10.6392  11.5883
    11.5883  12.1258  13.0294  13.0294  19.3661  19.3661  19.6643  21.1546
    21.1546  21.5304  21.8166  21.8166  22.1908  26.7365  27.8380  28.7492
    32.5506  33.7086  34.5302  36.0767  36.0767  37.7279

          k = 0.0000 0.2309 0.0000 (  1790 PWs)   bands (ev):

    -7.2222  -4.2296  -4.2204   4.5169   4.6022   6.7569   8.6223   8.8973
     9.2128  10.6608  11.4787  12.2702  19.4451  19.6253  21.3498  21.3828
    21.5811  22.7716  24.5428  24.8137  25.1603  25.2287  27.0127  27.2661
    33.4527  33.5075  34.2599  34.5604  34.6105  35.3616

          k = 0.0000 0.2309 0.1021 (  1787 PWs)   bands (ev):

    -7.0299  -5.5182  -2.6540   2.1691   6.6147   7.6299   7.7628   8.9188
     9.9839  10.5980  11.2739  11.5057  18.4174  19.9401  21.6179  22.0005
    22.5999  22.6159  23.5557  24.9881  25.3927  25.8898  26.1626  26.9047
    33.2844  33.5985  33.6912  33.9737  34.1270  36.6664

          k = 0.0000 0.2309 0.2041 (  1792 PWs)   bands (ev):

    -6.4602  -6.4572  -1.4890   0.7432   7.1159   7.4003   9.2511   9.3563
     9.7839   9.9320  10.1397  12.1046  18.0562  20.3837  20.7044  21.8638
    22.0328  23.8956  23.9049  24.4891  24.6828  25.4061  27.2385  28.0342
    32.2721  33.1918  33.9374  34.2556  34.6512  36.6370

          k = 0.0000 0.2309 0.3062 (  1787 PWs)   bands (ev):

    -7.0311  -5.5136  -2.6693   2.2291   6.7586   7.0070   8.2569   9.1928
     9.5288   9.8586  11.7906  12.1022  18.6600  20.5781  20.8871  20.9527
    21.2055  23.7581  24.0508  24.7765  24.8210  25.2836  27.4701  28.3698
    32.2369  33.5236  33.9542  35.0598  35.7833  35.9760

          k = 0.0000 0.4619 0.0000 (  1808 PWs)   bands (ev):

    -4.3478  -1.7700  -1.4325   1.0805   2.7956   3.5305   6.7365   6.9353
     7.2034   9.4650   9.6398   9.7831  17.9135  19.3146  20.4002  20.5953
    23.6443  23.7007  24.2254  25.3770  26.8038  28.4807  29.3926  29.4593
    31.9836  34.2048  35.5857  35.6938  36.4667  37.4251

          k = 0.0000 0.4619 0.1021 (  1810 PWs)   bands (ev):

    -4.1520  -2.8287   0.0419   1.1091   1.5660   4.7495   5.3083   7.3443
     8.3217   8.7167   8.9573  10.3098  18.4347  19.2098  20.7718  21.5232
    22.5608  23.4400  23.9587  25.5548  25.6221  28.7491  29.0725  29.5059
    33.7475  34.4054  34.7092  35.3857  36.8520  37.2847

          k = 0.0000 0.4619 0.2041 (  1810 PWs)   bands (ev):

    -3.6611  -3.5907   0.3537   1.5710   1.5750   4.1076   5.2972   7.3015
     7.8121   7.9271  10.4164  10.7232  18.1350  18.9037  21.3459  21.7724
    21.9074  22.2705  23.5074  27.4310  27.4780  27.9405  28.7142  28.9682
    32.4596  34.4369  34.9627  35.9983  37.4031  37.6837

          k = 0.0000 0.4619 0.3062 (  1810 PWs)   bands (ev):

    -4.1789  -2.6744  -0.6568   1.5144   2.4102   4.1988   4.9308   7.3748
     7.4034   8.5559  10.4378  10.6962  17.5158  19.6422  19.7247  21.4424
    22.2081  22.3676  26.1966  26.4466  27.5498  28.4960  28.8155  28.8176
    31.3626  34.2234  35.3108  36.5989  36.7190  37.7454

          k = 0.0000 0.6928 0.0000 (  1808 PWs)   bands (ev):

    -4.3478  -1.7700  -1.4325   1.0805   2.7956   3.5305   6.7365   6.9353
     7.2034   9.4650   9.6398   9.7831  17.9135  19.3146  20.4002  20.5953
    23.6443  23.7007  24.2254  25.3770  26.8038  28.4807  29.3926  29.4593
    31.9836  34.2048  35.5857  35.6938  36.4667  37.4251

          k = 0.0000 0.6928 0.1021 (  1810 PWs)   bands (ev):

    -4.1789  -2.6744  -0.6568   1.5144   2.4102   4.1988   4.9308   7.3748
     7.4034   8.5559  10.4378  10.6962  17.5158  19.6422  19.7247  21.4424
    22.2081  22.3676  26.1966  26.4466  27.5498  28.4960  28.8155  28.8176
    31.3626  34.2234  35.3108  36.5989  36.7190  37.7454

          k = 0.0000 0.6928 0.2041 (  1810 PWs)   bands (ev):

    -3.6611  -3.5907   0.3537   1.5710   1.5750   4.1076   5.2972   7.3015
     7.8121   7.9271  10.4164  10.7232  18.1350  18.9037  21.3459  21.7724
    21.9074  22.2705  23.5074  27.4310  27.4780  27.9405  28.7142  28.9682
    32.4596  34.4369  34.9627  35.9983  37.4031  37.6837

          k = 0.0000 0.6928 0.3062 (  1810 PWs)   bands (ev):

    -4.1520  -2.8287   0.0419   1.1091   1.5660   4.7495   5.3083   7.3443
     8.3217   8.7167   8.9573  10.3098  18.4347  19.2098  20.7718  21.5232
    22.5608  23.4400  23.9587  25.5548  25.6221  28.7491  29.0725  29.5059
    33.7475  34.4054  34.7092  35.3857  36.8520  37.2847

          k = 0.0000 0.9238 0.0000 (  1790 PWs)   bands (ev):

    -7.2222  -4.2296  -4.2204   4.5169   4.6022   6.7569   8.6223   8.8973
     9.2128  10.6608  11.4787  12.2702  19.4451  19.6253  21.3498  21.3828
    21.5811  22.7716  24.5428  24.8137  25.1603  25.2287  27.0127  27.2661
    33.4527  33.5075  34.2599  34.5604  34.6105  35.3616

          k = 0.0000 0.9238 0.1021 (  1787 PWs)   bands (ev):

    -7.0311  -5.5136  -2.6693   2.2291   6.7586   7.0070   8.2569   9.1928
     9.5288   9.8586  11.7906  12.1022  18.6600  20.5781  20.8871  20.9527
    21.2055  23.7581  24.0508  24.7765  24.8210  25.2836  27.4701  28.3698
    32.2369  33.5236  33.9542  35.0598  35.7833  35.9760

          k = 0.0000 0.9238 0.2041 (  1792 PWs)   bands (ev):

    -6.4602  -6.4572  -1.4890   0.7432   7.1159   7.4003   9.2511   9.3563
     9.7839   9.9320  10.1397  12.1046  18.0562  20.3837  20.7044  21.8638
    22.0328  23.8956  23.9049  24.4891  24.6828  25.4061  27.2385  28.0342
    32.2721  33.1918  33.9374  34.2556  34.6512  36.6370

          k = 0.0000 0.9238 0.3062 (  1787 PWs)   bands (ev):

    -7.0299  -5.5182  -2.6540   2.1691   6.6147   7.6299   7.7628   8.9188
     9.9839  10.5980  11.2739  11.5057  18.4174  19.9401  21.6179  22.0005
    22.5999  22.6159  23.5557  24.9881  25.3927  25.8898  26.1626  26.9047
    33.2844  33.5985  33.6912  33.9737  34.1270  36.6664

          k = 0.2000 0.1155 0.0000 (  1790 PWs)   bands (ev):

    -7.2222  -4.2296  -4.2204   4.5169   4.6022   6.7569   8.6223   8.8973
     9.2128  10.6608  11.4787  12.2702  19.4451  19.6253  21.3498  21.3828
    21.5811  22.7716  24.5428  24.8137  25.1603  25.2287  27.0127  27.2661
    33.4527  33.5075  34.2599  34.5604  34.6105  35.3616

          k = 0.2000 0.1155 0.1021 (  1787 PWs)   bands (ev):

    -7.0311  -5.5136  -2.6693   2.2291   6.7586   7.0070   8.2569   9.1928
     9.5288   9.8586  11.7906  12.1022  18.6600  20.5781  20.8871  20.9527
    21.2055  23.7581  24.0508  24.7765  24.8210  25.2836  27.4701  28.3698
    32.2369  33.5236  33.9542  35.0598  35.7833  35.9760

          k = 0.2000 0.1155 0.2041 (  1792 PWs)   bands (ev):

    -6.4602  -6.4572  -1.4890   0.7432   7.1159   7.4003   9.2511   9.3563
     9.7839   9.9320  10.1397  12.1046  18.0562  20.3837  20.7044  21.8638
    22.0328  23.8956  23.9049  24.4891  24.6828  25.4061  27.2385  28.0342
    32.2721  33.1918  33.9374  34.2556  34.6512  36.6370

          k = 0.2000 0.1155 0.3062 (  1787 PWs)   bands (ev):

    -7.0299  -5.5182  -2.6540   2.1691   6.6147   7.6299   7.7628   8.9188
     9.9839  10.5980  11.2739  11.5057  18.4174  19.9401  21.6179  22.0005
    22.5999  22.6159  23.5557  24.9881  25.3927  25.8898  26.1626  26.9047
    33.2844  33.5985  33.6912  33.9737  34.1270  36.6664

          k = 0.2000 0.3464 0.0000 (  1804 PWs)   bands (ev):

    -5.2870  -2.3940  -2.3940   3.7447   3.7448   5.9335   5.9335   6.3556
     7.2841   7.6949   7.6949  11.3443  20.8221  20.8221  21.8464  21.9520
    23.3869  23.3869  23.8575  25.1228  25.1228  26.8969  28.1164  28.1164
    33.6264  33.6264  33.7099  34.0664  35.8574  35.8574

          k = 0.2000 0.3464 0.1021 (  1814 PWs)   bands (ev):

    -5.1002  -3.6314  -0.9208   2.9559   4.1796   4.8060   5.6357   6.7196
     7.6446   8.0309   8.6231  10.7623  19.5545  20.8939  22.5812  22.6583
    23.2289  24.0240  24.4444  25.1765  25.2132  26.2214  26.4287  28.2306
    32.7671  34.1977  34.3409  34.4814  35.6608  35.9546

          k = 0.2000 0.3464 0.2041 (  1808 PWs)   bands (ev):

    -4.5440  -4.5440   0.1732   1.9503   4.6262   4.7913   4.7913   6.2962
     8.7270   8.7270   9.3884   9.3884  19.6674  19.6674  22.7717  23.9087
    24.3689  24.3689  24.8644  24.8644  25.2033  25.2033  26.3449  26.5679
    32.6893  34.5627  34.5627  35.0958  35.0958  36.0279

          k = 0.2000 0.3464 0.3062 (  1814 PWs)   bands (ev):

    -5.1002  -3.6314  -0.9208   2.9559   4.1796   4.8060   5.6357   6.7196
     7.6446   8.0309   8.6231  10.7623  19.5545  20.8939  22.5812  22.6583
    23.2289  24.0240  24.4444  25.1765  25.2132  26.2214  26.4287  28.2306
    32.7671  34.1977  34.3409  34.4814  35.6608  35.9546

          k = 0.2000 0.5774 0.0000 (  1808 PWs)   bands (ev):

    -1.7549  -1.7549   0.6371   1.2230   1.8851   1.8851   4.4598   5.9370
     5.9370   7.5889   8.9842   8.9842  18.6875  20.9288  20.9288  22.3387
    23.9885  23.9885  26.5826  26.5826  28.1166  28.1166  28.4799  29.2729
    31.2618  31.2618  33.2083  36.6404  36.6404  37.2021

          k = 0.2000 0.5774 0.1021 (  1804 PWs)   bands (ev):

    -1.7578  -1.5112  -0.1585   0.9226   2.0767   2.9820   4.7794   4.9689
     7.0442   7.1816   7.7010   9.4785  19.5876  20.6715  22.3723  22.5055
    23.1742  24.0280  25.2434  25.7932  27.6354  28.1031  28.4988  28.8710
    31.9525  32.1577  33.6009  36.1420  36.5017  37.5153

          k = 0.2000 0.5774 0.2041 (  1808 PWs)   bands (ev):

    -1.7029  -0.9727  -0.9727   0.5318   2.9868   2.9868   5.1327   5.1327
     6.5200   6.5200   7.9791   9.2572  21.5324  21.5941  21.5941  22.5498
    23.0160  23.0160  25.2855  25.5978  25.5978  28.5100  28.5516  28.5516
    32.4964  33.3747  33.3747  35.8827  35.8827  37.3022

          k = 0.2000 0.5774 0.3062 (  1804 PWs)   bands (ev):

    -1.7578  -1.5112  -0.1585   0.9226   2.0767   2.9820   4.7794   4.9689
     7.0442   7.1816   7.7010   9.4785  19.5876  20.6715  22.3723  22.5055
    23.1742  24.0280  25.2434  25.7932  27.6354  28.1031  28.4988  28.8710
    31.9525  32.1577  33.6009  36.1420  36.5017  37.5153

          k = 0.2000 0.8083 0.0000 (  1804 PWs)   bands (ev):

    -5.2870  -2.3940  -2.3940   3.7447   3.7448   5.9335   5.9335   6.3556
     7.2841   7.6949   7.6949  11.3443  20.8221  20.8221  21.8464  21.9520
    23.3869  23.3869  23.8575  25.1228  25.1228  26.8969  28.1164  28.1164
    33.6264  33.6264  33.7099  34.0664  35.8574  35.8574

          k = 0.2000 0.8083 0.1021 (  1814 PWs)   bands (ev):

    -5.1002  -3.6314  -0.9208   2.9559   4.1796   4.8060   5.6357   6.7196
     7.6446   8.0309   8.6231  10.7623  19.5545  20.8939  22.5812  22.6583
    23.2289  24.0240  24.4444  25.1765  25.2132  26.2214  26.4287  28.2306
    32.7671  34.1977  34.3409  34.4814  35.6608  35.9546

          k = 0.2000 0.8083 0.2041 (  1808 PWs)   bands (ev):

    -4.5440  -4.5440   0.1732   1.9503   4.6262   4.7913   4.7913   6.2962
     8.7270   8.7270   9.3884   9.3884  19.6674  19.6674  22.7717  23.9087
    24.3689  24.3689  24.8644  24.8644  25.2033  25.2033  26.3449  26.5679
    32.6893  34.5627  34.5627  35.0958  35.0958  36.0279

          k = 0.2000 0.8083 0.3062 (  1814 PWs)   bands (ev):

    -5.1002  -3.6314  -0.9208   2.9559   4.1796   4.8060   5.6357   6.7196
     7.6446   8.0309   8.6231  10.7623  19.5545  20.8939  22.5812  22.6583
    23.2289  24.0240  24.4444  25.1765  25.2132  26.2214  26.4287  28.2306
    32.7671  34.1977  34.3409  34.4814  35.6608  35.9546

          k = 0.2000 1.0392 0.0000 (  1790 PWs)   bands (ev):

    -7.2222  -4.2296  -4.2204   4.5169   4.6022   6.7569   8.6223   8.8973
     9.2128  10.6608  11.4787  12.2702  19.4451  19.6253  21.3498  21.3828
    21.5811  22.7716  24.5428  24.8137  25.1603  25.2287  27.0127  27.2661
    33.4527  33.5075  34.2599  34.5604  34.6105  35.3616

          k = 0.2000 1.0392 0.1021 (  1787 PWs)   bands (ev):

    -7.0299  -5.5182  -2.6540   2.1691   6.6147   7.6299   7.7628   8.9188
     9.9839  10.5980  11.2739  11.5057  18.4174  19.9401  21.6179  22.0005
    22.5999  22.6159  23.5557  24.9881  25.3927  25.8898  26.1626  26.9047
    33.2844  33.5985  33.6912  33.9737  34.1270  36.6664

          k = 0.2000 1.0392 0.2041 (  1792 PWs)   bands (ev):

    -6.4602  -6.4572  -1.4890   0.7432   7.1159   7.4003   9.2511   9.3563
     9.7839   9.9320  10.1397  12.1046  18.0562  20.3837  20.7044  21.8638
    22.0328  23.8956  23.9049  24.4891  24.6828  25.4061  27.2385  28.0342
    32.2721  33.1918  33.9374  34.2556  34.6512  36.6370

          k = 0.2000 1.0392 0.3062 (  1787 PWs)   bands (ev):

    -7.0311  -5.5136  -2.6693   2.2291   6.7586   7.0070   8.2569   9.1928
     9.5288   9.8586  11.7906  12.1022  18.6600  20.5781  20.8871  20.9527
    21.2055  23.7581  24.0508  24.7765  24.8210  25.2836  27.4701  28.3698
    32.2369  33.5236  33.9542  35.0598  35.7833  35.9760

          k = 0.4000 0.2309 0.0000 (  1808 PWs)   bands (ev):

    -4.3478  -1.7700  -1.4325   1.0805   2.7956   3.5305   6.7365   6.9353
     7.2034   9.4650   9.6398   9.7831  17.9135  19.3146  20.4002  20.5953
    23.6443  23.7007  24.2254  25.3770  26.8038  28.4807  29.3926  29.4593
    31.9836  34.2048  35.5857  35.6938  36.4667  37.4251

          k = 0.4000 0.2309 0.1021 (  1810 PWs)   bands (ev):

    -4.1789  -2.6744  -0.6568   1.5144   2.4102   4.1988   4.9308   7.3748
     7.4034   8.5559  10.4378  10.6962  17.5158  19.6422  19.7247  21.4424
    22.2081  22.3676  26.1966  26.4466  27.5498  28.4960  28.8155  28.8176
    31.3626  34.2234  35.3108  36.5989  36.7190  37.7454

          k = 0.4000 0.2309 0.2041 (  1810 PWs)   bands (ev):

    -3.6611  -3.5907   0.3537   1.5710   1.5750   4.1076   5.2972   7.3015
     7.8121   7.9271  10.4164  10.7232  18.1350  18.9037  21.3459  21.7724
    21.9074  22.2705  23.5074  27.4310  27.4780  27.9405  28.7142  28.9682
    32.4596  34.4369  34.9627  35.9983  37.4031  37.6837

          k = 0.4000 0.2309 0.3062 (  1810 PWs)   bands (ev):

    -4.1520  -2.8287   0.0419   1.1091   1.5660   4.7495   5.3083   7.3443
     8.3217   8.7167   8.9573  10.3098  18.4347  19.2098  20.7718  21.5232
    22.5608  23.4400  23.9587  25.5548  25.6221  28.7491  29.0725  29.5059
    33.7475  34.4054  34.7092  35.3857  36.8520  37.2847

          k = 0.4000 0.4619 0.0000 (  1808 PWs)   bands (ev):

    -1.7549  -1.7549   0.6371   1.2230   1.8851   1.8851   4.4598   5.9370
     5.9370   7.5889   8.9842   8.9842  18.6875  20.9288  20.9288  22.3387
    23.9885  23.9885  26.5826  26.5826  28.1166  28.1166  28.4799  29.2729
    31.2618  31.2618  33.2083  36.6404  36.6404  37.2021

          k = 0.4000 0.4619 0.1021 (  1804 PWs)   bands (ev):

    -1.7578  -1.5112  -0.1585   0.9226   2.0767   2.9820   4.7794   4.9689
     7.0442   7.1816   7.7010   9.4785  19.5876  20.6715  22.3723  22.5055
    23.1742  24.0280  25.2434  25.7932  27.6354  28.1031  28.4988  28.8710
    31.9525  32.1577  33.6009  36.1420  36.5017  37.5153

          k = 0.4000 0.4619 0.2041 (  1808 PWs)   bands (ev):

    -1.7029  -0.9727  -0.9727   0.5318   2.9868   2.9868   5.1327   5.1327
     6.5200   6.5200   7.9791   9.2572  21.5324  21.5941  21.5941  22.5498
    23.0160  23.0160  25.2855  25.5978  25.5978  28.5100  28.5516  28.5516
    32.4964  33.3747  33.3747  35.8827  35.8827  37.3022

          k = 0.4000 0.4619 0.3062 (  1804 PWs)   bands (ev):

    -1.7578  -1.5112  -0.1585   0.9226   2.0767   2.9820   4.7794   4.9689
     7.0442   7.1816   7.7010   9.4785  19.5876  20.6715  22.3723  22.5055
    23.1742  24.0280  25.2434  25.7932  27.6354  28.1031  28.4988  28.8710
    31.9525  32.1577  33.6009  36.1420  36.5017  37.5153

          k = 0.4000 0.6928 0.0000 (  1808 PWs)   bands (ev):

    -1.7549  -1.7549   0.6371   1.2230   1.8851   1.8851   4.4598   5.9370
     5.9370   7.5889   8.9842   8.9842  18.6875  20.9288  20.9288  22.3387
    23.9885  23.9885  26.5826  26.5826  28.1166  28.1166  28.4799  29.2729
    31.2618  31.2618  33.2083  36.6404  36.6404  37.2021

          k = 0.4000 0.6928 0.1021 (  1804 PWs)   bands (ev):

    -1.7578  -1.5112  -0.1585   0.9226   2.0767   2.9820   4.7794   4.9689
     7.0442   7.1816   7.7010   9.4785  19.5876  20.6715  22.3723  22.5055
    23.1742  24.0280  25.2434  25.7932  27.6354  28.1031  28.4988  28.8710
    31.9525  32.1577  33.6009  36.1420  36.5017  37.5153

          k = 0.4000 0.6928 0.2041 (  1808 PWs)   bands (ev):

    -1.7029  -0.9727  -0.9727   0.5318   2.9868   2.9868   5.1327   5.1327
     6.5200   6.5200   7.9791   9.2572  21.5324  21.5941  21.5941  22.5498
    23.0160  23.0160  25.2855  25.5978  25.5978  28.5100  28.5516  28.5516
    32.4964  33.3747  33.3747  35.8827  35.8827  37.3022

          k = 0.4000 0.6928 0.3062 (  1804 PWs)   bands (ev):

    -1.7578  -1.5112  -0.1585   0.9226   2.0767   2.9820   4.7794   4.9689
     7.0442   7.1816   7.7010   9.4785  19.5876  20.6715  22.3723  22.5055
    23.1742  24.0280  25.2434  25.7932  27.6354  28.1031  28.4988  28.8710
    31.9525  32.1577  33.6009  36.1420  36.5017  37.5153

          k = 0.4000 0.9238 0.0000 (  1808 PWs)   bands (ev):

    -4.3478  -1.7700  -1.4325   1.0805   2.7956   3.5305   6.7365   6.9353
     7.2034   9.4650   9.6398   9.7831  17.9135  19.3146  20.4002  20.5953
    23.6443  23.7007  24.2254  25.3770  26.8038  28.4807  29.3926  29.4593
    31.9836  34.2048  35.5857  35.6938  36.4667  37.4251

          k = 0.4000 0.9238 0.1021 (  1810 PWs)   bands (ev):

    -4.1520  -2.8287   0.0419   1.1091   1.5660   4.7495   5.3083   7.3443
     8.3217   8.7167   8.9573  10.3098  18.4347  19.2098  20.7718  21.5232
    22.5608  23.4400  23.9587  25.5548  25.6221  28.7491  29.0725  29.5059
    33.7475  34.4054  34.7092  35.3857  36.8520  37.2847

          k = 0.4000 0.9238 0.2041 (  1810 PWs)   bands (ev):

    -3.6611  -3.5907   0.3537   1.5710   1.5750   4.1076   5.2972   7.3015
     7.8121   7.9271  10.4164  10.7232  18.1350  18.9037  21.3459  21.7724
    21.9074  22.2705  23.5074  27.4310  27.4780  27.9405  28.7142  28.9682
    32.4596  34.4369  34.9627  35.9983  37.4031  37.6837

          k = 0.4000 0.9238 0.3062 (  1810 PWs)   bands (ev):

    -4.1789  -2.6744  -0.6568   1.5144   2.4102   4.1988   4.9308   7.3748
     7.4034   8.5559  10.4378  10.6962  17.5158  19.6422  19.7247  21.4424
    22.2081  22.3676  26.1966  26.4466  27.5498  28.4960  28.8155  28.8176
    31.3626  34.2234  35.3108  36.5989  36.7190  37.7454

          k = 0.4000 1.1547 0.0000 (  1804 PWs)   bands (ev):

    -5.2870  -2.3940  -2.3940   3.7447   3.7448   5.9335   5.9335   6.3556
     7.2841   7.6949   7.6949  11.3443  20.8221  20.8221  21.8464  21.9520
    23.3869  23.3869  23.8575  25.1228  25.1228  26.8969  28.1164  28.1164
    33.6264  33.6264  33.7099  34.0664  35.8574  35.8574

          k = 0.4000 1.1547 0.1021 (  1814 PWs)   bands (ev):

    -5.1002  -3.6314  -0.9208   2.9559   4.1796   4.8060   5.6357   6.7196
     7.6446   8.0309   8.6231  10.7623  19.5545  20.8939  22.5812  22.6583
    23.2289  24.0240  24.4444  25.1765  25.2132  26.2214  26.4287  28.2306
    32.7671  34.1977  34.3409  34.4814  35.6608  35.9546

          k = 0.4000 1.1547 0.2041 (  1808 PWs)   bands (ev):

    -4.5440  -4.5440   0.1732   1.9503   4.6262   4.7913   4.7913   6.2962
     8.7270   8.7270   9.3884   9.3884  19.6674  19.6674  22.7717  23.9087
    24.3689  24.3689  24.8644  24.8644  25.2033  25.2033  26.3449  26.5679
    32.6893  34.5627  34.5627  35.0958  35.0958  36.0279

          k = 0.4000 1.1547 0.3062 (  1814 PWs)   bands (ev):

    -5.1002  -3.6314  -0.9208   2.9559   4.1796   4.8060   5.6357   6.7196
     7.6446   8.0309   8.6231  10.7623  19.5545  20.8939  22.5812  22.6583
    23.2289  24.0240  24.4444  25.1765  25.2132  26.2214  26.4287  28.2306
    32.7671  34.1977  34.3409  34.4814  35.6608  35.9546

          k = 0.6000 0.3464 0.0000 (  1808 PWs)   bands (ev):

    -4.3478  -1.7700  -1.4325   1.0805   2.7956   3.5305   6.7365   6.9353
     7.2034   9.4650   9.6398   9.7831  17.9135  19.3146  20.4002  20.5953
    23.6443  23.7007  24.2254  25.3770  26.8038  28.4807  29.3926  29.4593
    31.9836  34.2048  35.5857  35.6938  36.4667  37.4251

          k = 0.6000 0.3464 0.1021 (  1810 PWs)   bands (ev):

    -4.1520  -2.8287   0.0419   1.1091   1.5660   4.7495   5.3083   7.3443
     8.3217   8.7167   8.9573  10.3098  18.4347  19.2098  20.7718  21.5232
    22.5608  23.4400  23.9587  25.5548  25.6221  28.7491  29.0725  29.5059
    33.7475  34.4054  34.7092  35.3857  36.8520  37.2847

          k = 0.6000 0.3464 0.2041 (  1810 PWs)   bands (ev):

    -3.6611  -3.5907   0.3537   1.5710   1.5750   4.1076   5.2972   7.3015
     7.8121   7.9271  10.4164  10.7232  18.1350  18.9037  21.3459  21.7724
    21.9074  22.2705  23.5074  27.4310  27.4780  27.9405  28.7142  28.9682
    32.4596  34.4369  34.9627  35.9983  37.4031  37.6837

          k = 0.6000 0.3464 0.3062 (  1810 PWs)   bands (ev):

    -4.1789  -2.6744  -0.6568   1.5144   2.4102   4.1988   4.9308   7.3748
     7.4034   8.5559  10.4378  10.6962  17.5158  19.6422  19.7247  21.4424
    22.2081  22.3676  26.1966  26.4466  27.5498  28.4960  28.8155  28.8176
    31.3626  34.2234  35.3108  36.5989  36.7190  37.7454

          k = 0.6000 0.5774 0.0000 (  1804 PWs)   bands (ev):

    -5.2870  -2.3940  -2.3940   3.7447   3.7448   5.9335   5.9335   6.3556
     7.2841   7.6949   7.6949  11.3443  20.8221  20.8221  21.8464  21.9520
    23.3869  23.3869  23.8575  25.1228  25.1228  26.8969  28.1164  28.1164
    33.6264  33.6264  33.7099  34.0664  35.8574  35.8574

          k = 0.6000 0.5774 0.1021 (  1814 PWs)   bands (ev):

    -5.1002  -3.6314  -0.9208   2.9559   4.1796   4.8060   5.6357   6.7196
     7.6446   8.0309   8.6231  10.7623  19.5545  20.8939  22.5812  22.6583
    23.2289  24.0240  24.4444  25.1765  25.2132  26.2214  26.4287  28.2306
    32.7671  34.1977  34.3409  34.4814  35.6608  35.9546

          k = 0.6000 0.5774 0.2041 (  1808 PWs)   bands (ev):

    -4.5440  -4.5440   0.1732   1.9503   4.6262   4.7913   4.7913   6.2962
     8.7270   8.7270   9.3884   9.3884  19.6674  19.6674  22.7717  23.9087
    24.3689  24.3689  24.8644  24.8644  25.2033  25.2033  26.3449  26.5679
    32.6893  34.5627  34.5627  35.0958  35.0958  36.0279

          k = 0.6000 0.5774 0.3062 (  1814 PWs)   bands (ev):

    -5.1002  -3.6314  -0.9208   2.9559   4.1796   4.8060   5.6357   6.7196
     7.6446   8.0309   8.6231  10.7623  19.5545  20.8939  22.5812  22.6583
    23.2289  24.0240  24.4444  25.1765  25.2132  26.2214  26.4287  28.2306
    32.7671  34.1977  34.3409  34.4814  35.6608  35.9546

          k = 0.6000 0.8083 0.0000 (  1808 PWs)   bands (ev):

    -4.3478  -1.7700  -1.4325   1.0805   2.7956   3.5305   6.7365   6.9353
     7.2034   9.4650   9.6398   9.7831  17.9135  19.3146  20.4002  20.5953
    23.6443  23.7007  24.2254  25.3770  26.8038  28.4807  29.3926  29.4593
    31.9836  34.2048  35.5857  35.6938  36.4667  37.4251

          k = 0.6000 0.8083 0.1021 (  1810 PWs)   bands (ev):

    -4.1789  -2.6744  -0.6568   1.5144   2.4102   4.1988   4.9308   7.3748
     7.4034   8.5559  10.4378  10.6962  17.5158  19.6422  19.7247  21.4424
    22.2081  22.3676  26.1966  26.4466  27.5498  28.4960  28.8155  28.8176
    31.3626  34.2234  35.3108  36.5989  36.7190  37.7454

          k = 0.6000 0.8083 0.2041 (  1810 PWs)   bands (ev):

    -3.6611  -3.5907   0.3537   1.5710   1.5750   4.1076   5.2972   7.3015
     7.8121   7.9271  10.4164  10.7232  18.1350  18.9037  21.3459  21.7724
    21.9074  22.2705  23.5074  27.4310  27.4780  27.9405  28.7142  28.9682
    32.4596  34.4369  34.9627  35.9983  37.4031  37.6837

          k = 0.6000 0.8083 0.3062 (  1810 PWs)   bands (ev):

    -4.1520  -2.8287   0.0419   1.1091   1.5660   4.7495   5.3083   7.3443
     8.3217   8.7167   8.9573  10.3098  18.4347  19.2098  20.7718  21.5232
    22.5608  23.4400  23.9587  25.5548  25.6221  28.7491  29.0725  29.5059
    33.7475  34.4054  34.7092  35.3857  36.8520  37.2847

          k = 0.6000 1.0392 0.0000 (  1808 PWs)   bands (ev):

    -1.7549  -1.7549   0.6371   1.2230   1.8851   1.8851   4.4598   5.9370
     5.9370   7.5889   8.9842   8.9842  18.6875  20.9288  20.9288  22.3387
    23.9885  23.9885  26.5826  26.5826  28.1166  28.1166  28.4799  29.2729
    31.2618  31.2618  33.2083  36.6404  36.6404  37.2021

          k = 0.6000 1.0392 0.1021 (  1804 PWs)   bands (ev):

    -1.7578  -1.5112  -0.1585   0.9226   2.0767   2.9820   4.7794   4.9689
     7.0442   7.1816   7.7010   9.4785  19.5876  20.6715  22.3723  22.5055
    23.1742  24.0280  25.2434  25.7932  27.6354  28.1031  28.4988  28.8710
    31.9525  32.1577  33.6009  36.1420  36.5017  37.5153

          k = 0.6000 1.0392 0.2041 (  1808 PWs)   bands (ev):

    -1.7029  -0.9727  -0.9727   0.5318   2.9868   2.9868   5.1327   5.1327
     6.5200   6.5200   7.9791   9.2572  21.5324  21.5941  21.5941  22.5498
    23.0160  23.0160  25.2855  25.5978  25.5978  28.5100  28.5516  28.5516
    32.4964  33.3747  33.3747  35.8827  35.8827  37.3022

          k = 0.6000 1.0392 0.3062 (  1804 PWs)   bands (ev):

    -1.7578  -1.5112  -0.1585   0.9226   2.0767   2.9820   4.7794   4.9689
     7.0442   7.1816   7.7010   9.4785  19.5876  20.6715  22.3723  22.5055
    23.1742  24.0280  25.2434  25.7932  27.6354  28.1031  28.4988  28.8710
    31.9525  32.1577  33.6009  36.1420  36.5017  37.5153

          k = 0.6000 1.2702 0.0000 (  1808 PWs)   bands (ev):

    -1.7549  -1.7549   0.6371   1.2230   1.8851   1.8851   4.4598   5.9370
     5.9370   7.5889   8.9842   8.9842  18.6875  20.9288  20.9288  22.3387
    23.9885  23.9885  26.5826  26.5826  28.1166  28.1166  28.4799  29.2729
    31.2618  31.2618  33.2083  36.6404  36.6404  37.2021

          k = 0.6000 1.2702 0.1021 (  1804 PWs)   bands (ev):

    -1.7578  -1.5112  -0.1585   0.9226   2.0767   2.9820   4.7794   4.9689
     7.0442   7.1816   7.7010   9.4785  19.5876  20.6715  22.3723  22.5055
    23.1742  24.0280  25.2434  25.7932  27.6354  28.1031  28.4988  28.8710
    31.9525  32.1577  33.6009  36.1420  36.5017  37.5153

          k = 0.6000 1.2702 0.2041 (  1808 PWs)   bands (ev):

    -1.7029  -0.9727  -0.9727   0.5318   2.9868   2.9868   5.1327   5.1327
     6.5200   6.5200   7.9791   9.2572  21.5324  21.5941  21.5941  22.5498
    23.0160  23.0160  25.2855  25.5978  25.5978  28.5100  28.5516  28.5516
    32.4964  33.3747  33.3747  35.8827  35.8827  37.3022

          k = 0.6000 1.2702 0.3062 (  1804 PWs)   bands (ev):

    -1.7578  -1.5112  -0.1585   0.9226   2.0767   2.9820   4.7794   4.9689
     7.0442   7.1816   7.7010   9.4785  19.5876  20.6715  22.3723  22.5055
    23.1742  24.0280  25.2434  25.7932  27.6354  28.1031  28.4988  28.8710
    31.9525  32.1577  33.6009  36.1420  36.5017  37.5153

          k = 0.8000 0.4619 0.0000 (  1790 PWs)   bands (ev):

    -7.2222  -4.2296  -4.2204   4.5169   4.6022   6.7569   8.6223   8.8973
     9.2128  10.6608  11.4787  12.2702  19.4451  19.6253  21.3498  21.3828
    21.5811  22.7716  24.5428  24.8137  25.1603  25.2287  27.0127  27.2661
    33.4527  33.5075  34.2599  34.5604  34.6105  35.3616

          k = 0.8000 0.4619 0.1021 (  1787 PWs)   bands (ev):

    -7.0299  -5.5182  -2.6540   2.1691   6.6147   7.6299   7.7628   8.9188
     9.9839  10.5980  11.2739  11.5057  18.4174  19.9401  21.6179  22.0005
    22.5999  22.6159  23.5557  24.9881  25.3927  25.8898  26.1626  26.9047
    33.2844  33.5985  33.6912  33.9737  34.1270  36.6664

          k = 0.8000 0.4619 0.2041 (  1792 PWs)   bands (ev):

    -6.4602  -6.4572  -1.4890   0.7432   7.1159   7.4003   9.2511   9.3563
     9.7839   9.9320  10.1397  12.1046  18.0562  20.3837  20.7044  21.8638
    22.0328  23.8956  23.9049  24.4891  24.6828  25.4061  27.2385  28.0342
    32.2721  33.1918  33.9374  34.2556  34.6512  36.6370

          k = 0.8000 0.4619 0.3062 (  1787 PWs)   bands (ev):

    -7.0311  -5.5136  -2.6693   2.2291   6.7586   7.0070   8.2569   9.1928
     9.5288   9.8586  11.7906  12.1022  18.6600  20.5781  20.8871  20.9527
    21.2055  23.7581  24.0508  24.7765  24.8210  25.2836  27.4701  28.3698
    32.2369  33.5236  33.9542  35.0598  35.7833  35.9760

          k = 0.8000 0.6928 0.0000 (  1790 PWs)   bands (ev):

    -7.2222  -4.2296  -4.2204   4.5169   4.6022   6.7569   8.6223   8.8973
     9.2128  10.6608  11.4787  12.2702  19.4451  19.6253  21.3498  21.3828
    21.5811  22.7716  24.5428  24.8137  25.1603  25.2287  27.0127  27.2661
    33.4527  33.5075  34.2599  34.5604  34.6105  35.3616

          k = 0.8000 0.6928 0.1021 (  1787 PWs)   bands (ev):

    -7.0311  -5.5136  -2.6693   2.2291   6.7586   7.0070   8.2569   9.1928
     9.5288   9.8586  11.7906  12.1022  18.6600  20.5781  20.8871  20.9527
    21.2055  23.7581  24.0508  24.7765  24.8210  25.2836  27.4701  28.3698
    32.2369  33.5236  33.9542  35.0598  35.7833  35.9760

          k = 0.8000 0.6928 0.2041 (  1792 PWs)   bands (ev):

    -6.4602  -6.4572  -1.4890   0.7432   7.1159   7.4003   9.2511   9.3563
     9.7839   9.9320  10.1397  12.1046  18.0562  20.3837  20.7044  21.8638
    22.0328  23.8956  23.9049  24.4891  24.6828  25.4061  27.2385  28.0342
    32.2721  33.1918  33.9374  34.2556  34.6512  36.6370

          k = 0.8000 0.6928 0.3062 (  1787 PWs)   bands (ev):

    -7.0299  -5.5182  -2.6540   2.1691   6.6147   7.6299   7.7628   8.9188
     9.9839  10.5980  11.2739  11.5057  18.4174  19.9401  21.6179  22.0005
    22.5999  22.6159  23.5557  24.9881  25.3927  25.8898  26.1626  26.9047
    33.2844  33.5985  33.6912  33.9737  34.1270  36.6664

          k = 0.8000 0.9238 0.0000 (  1804 PWs)   bands (ev):

    -5.2870  -2.3940  -2.3940   3.7447   3.7448   5.9335   5.9335   6.3556
     7.2841   7.6949   7.6949  11.3443  20.8221  20.8221  21.8464  21.9520
    23.3869  23.3869  23.8575  25.1228  25.1228  26.8969  28.1164  28.1164
    33.6264  33.6264  33.7099  34.0664  35.8574  35.8574

          k = 0.8000 0.9238 0.1021 (  1814 PWs)   bands (ev):

    -5.1002  -3.6314  -0.9208   2.9559   4.1796   4.8060   5.6357   6.7196
     7.6446   8.0309   8.6231  10.7623  19.5545  20.8939  22.5812  22.6583
    23.2289  24.0240  24.4444  25.1765  25.2132  26.2214  26.4287  28.2306
    32.7671  34.1977  34.3409  34.4814  35.6608  35.9546

          k = 0.8000 0.9238 0.2041 (  1808 PWs)   bands (ev):

    -4.5440  -4.5440   0.1732   1.9503   4.6262   4.7913   4.7913   6.2962
     8.7270   8.7270   9.3884   9.3884  19.6674  19.6674  22.7717  23.9087
    24.3689  24.3689  24.8644  24.8644  25.2033  25.2033  26.3449  26.5679
    32.6893  34.5627  34.5627  35.0958  35.0958  36.0279

          k = 0.8000 0.9238 0.3062 (  1814 PWs)   bands (ev):

    -5.1002  -3.6314  -0.9208   2.9559   4.1796   4.8060   5.6357   6.7196
     7.6446   8.0309   8.6231  10.7623  19.5545  20.8939  22.5812  22.6583
    23.2289  24.0240  24.4444  25.1765  25.2132  26.2214  26.4287  28.2306
    32.7671  34.1977  34.3409  34.4814  35.6608  35.9546

          k = 0.8000 1.1547 0.0000 (  1808 PWs)   bands (ev):

    -1.7549  -1.7549   0.6371   1.2230   1.8851   1.8851   4.4598   5.9370
     5.9370   7.5889   8.9842   8.9842  18.6875  20.9288  20.9288  22.3387
    23.9885  23.9885  26.5826  26.5826  28.1166  28.1166  28.4799  29.2729
    31.2618  31.2618  33.2083  36.6404  36.6404  37.2021

          k = 0.8000 1.1547 0.1021 (  1804 PWs)   bands (ev):

    -1.7578  -1.5112  -0.1585   0.9226   2.0767   2.9820   4.7794   4.9689
     7.0442   7.1816   7.7010   9.4785  19.5876  20.6715  22.3723  22.5055
    23.1742  24.0280  25.2434  25.7932  27.6354  28.1031  28.4988  28.8710
    31.9525  32.1577  33.6009  36.1420  36.5017  37.5153

          k = 0.8000 1.1547 0.2041 (  1808 PWs)   bands (ev):

    -1.7029  -0.9727  -0.9727   0.5318   2.9868   2.9868   5.1327   5.1327
     6.5200   6.5200   7.9791   9.2572  21.5324  21.5941  21.5941  22.5498
    23.0160  23.0160  25.2855  25.5978  25.5978  28.5100  28.5516  28.5516
    32.4964  33.3747  33.3747  35.8827  35.8827  37.3022

          k = 0.8000 1.1547 0.3062 (  1804 PWs)   bands (ev):

    -1.7578  -1.5112  -0.1585   0.9226   2.0767   2.9820   4.7794   4.9689
     7.0442   7.1816   7.7010   9.4785  19.5876  20.6715  22.3723  22.5055
    23.1742  24.0280  25.2434  25.7932  27.6354  28.1031  28.4988  28.8710
    31.9525  32.1577  33.6009  36.1420  36.5017  37.5153

          k = 0.8000 1.3856 0.0000 (  1804 PWs)   bands (ev):

    -5.2870  -2.3940  -2.3940   3.7447   3.7448   5.9335   5.9335   6.3556
     7.2841   7.6949   7.6949  11.3443  20.8221  20.8221  21.8464  21.9520
    23.3869  23.3869  23.8575  25.1228  25.1228  26.8969  28.1164  28.1164
    33.6264  33.6264  33.7099  34.0664  35.8574  35.8574

          k = 0.8000 1.3856 0.1021 (  1814 PWs)   bands (ev):

    -5.1002  -3.6314  -0.9208   2.9559   4.1796   4.8060   5.6357   6.7196
     7.6446   8.0309   8.6231  10.7623  19.5545  20.8939  22.5812  22.6583
    23.2289  24.0240  24.4444  25.1765  25.2132  26.2214  26.4287  28.2306
    32.7671  34.1977  34.3409  34.4814  35.6608  35.9546

          k = 0.8000 1.3856 0.2041 (  1808 PWs)   bands (ev):

    -4.5440  -4.5440   0.1732   1.9503   4.6262   4.7913   4.7913   6.2962
     8.7270   8.7270   9.3884   9.3884  19.6674  19.6674  22.7717  23.9087
    24.3689  24.3689  24.8644  24.8644  25.2033  25.2033  26.3449  26.5679
    32.6893  34.5627  34.5627  35.0958  35.0958  36.0279

          k = 0.8000 1.3856 0.3062 (  1814 PWs)   bands (ev):

    -5.1002  -3.6314  -0.9208   2.9559   4.1796   4.8060   5.6357   6.7196
     7.6446   8.0309   8.6231  10.7623  19.5545  20.8939  22.5812  22.6583
    23.2289  24.0240  24.4444  25.1765  25.2132  26.2214  26.4287  28.2306
    32.7671  34.1977  34.3409  34.4814  35.6608  35.9546

     Writing output data file diam.bulk.save/
 
     init_run     :      0.09s CPU      0.11s WALL (       1 calls)
     electrons    :      3.32s CPU      3.87s WALL (       1 calls)

     Called by init_run:
     wfcinit      :      0.00s CPU      0.01s WALL (       1 calls)
     wfcinit:atom :      0.00s CPU      0.01s WALL (       7 calls)
     wfcinit:wfcr :      0.20s CPU      0.20s WALL (       7 calls)
     potinit      :      0.02s CPU      0.03s WALL (       1 calls)
     hinit0       :      0.06s CPU      0.06s WALL (       1 calls)

     Called by electrons:
     c_bands      :      3.31s CPU      3.87s WALL (       1 calls)
     v_of_rho     :      0.02s CPU      0.02s WALL (       1 calls)
     v_h          :      0.00s CPU      0.00s WALL (       1 calls)
     v_xc         :      0.02s CPU      0.02s WALL (       1 calls)

     Called by c_bands:
     init_us_2    :      0.00s CPU      0.00s WALL (       7 calls)
     cegterg      :      3.10s CPU      3.13s WALL (       9 calls)

     Called by sum_band:

     Called by *egterg:
     h_psi        :      2.03s CPU      2.04s WALL (     137 calls)
     g_psi        :      0.04s CPU      0.04s WALL (     121 calls)
     cdiaghg      :      0.37s CPU      0.38s WALL (     128 calls)
     cegterg:over :      0.34s CPU      0.34s WALL (     121 calls)
     cegterg:upda :      0.28s CPU      0.29s WALL (     121 calls)
     cegterg:last :      0.17s CPU      0.17s WALL (      29 calls)

     Called by h_psi:
     h_psi:pot    :      2.01s CPU      2.01s WALL (     137 calls)
     h_psi:calbec :      0.05s CPU      0.05s WALL (     137 calls)
     vloc_psi     :      1.91s CPU      1.91s WALL (     137 calls)
     add_vuspsi   :      0.05s CPU      0.05s WALL (     137 calls)

     General routines
     calbec       :      0.05s CPU      0.05s WALL (     137 calls)
     fft          :      0.00s CPU      0.00s WALL (      10 calls)
     fftw         :      1.65s CPU      1.68s WALL (    4950 calls)
     davcio       :      0.01s CPU      0.24s WALL (      14 calls)
 
     Parallel routines
 
     PWSCF        :      3.65s CPU      5.70s WALL

 
   This run was terminated on:  14:47:44   6Oct2019            

=------------------------------------------------------------------------------=
   JOB DONE.
=------------------------------------------------------------------------------=
