
     Program PWSCF v.6.4.1 starts on  6Oct2019 at 15: 4:40 

     This program is part of the open-source Quantum ESPRESSO suite
     for quantum simulation of materials; please cite
         "P. Giannozzi et al., J. Phys.:Condens. Matter 21 395502 (2009);
         "P. Giannozzi et al., J. Phys.:Condens. Matter 29 465901 (2017);
          URL http://www.quantum-espresso.org", 
     in publications or presentations arising from this work. More details at
     http://www.quantum-espresso.org/quote

     Parallel version (MPI), running on    32 processors

     MPI processes distributed on     2 nodes
     K-points division:     npool     =      16
     R & G space division:  proc/nbgrp/npool/nimage =       2
     Waiting for input...
     Reading input from standard input

     Current dimensions of program PWSCF are:
     Max number of different atomic species (ntypx) = 10
     Max number of k-points (npk) =  40000
     Max angular momentum in pseudopotentials (lmaxx) =  3

     Atomic positions and unit cell read from directory:
     temp/diam.slab.save/                                                                                                                                                                                                                                            
 

     Subspace diagonalization in iterative solution of the eigenvalue problem:
     a serial algorithm will be used

 
     Parallelization info
     --------------------
     sticks:   dense  smooth     PW     G-vecs:    dense   smooth      PW
     Min         189     189     75                50558    50558   12991
     Max         190     190     76                50567    50567   13048
     Sum         379     379    151               101125   101125   26039
 


     bravais-lattice index     =            4
     lattice parameter (alat)  =       4.7659  a.u.
     unit-cell volume          =    1607.4561 (a.u.)^3
     number of atoms/cell      =           30
     number of atomic types    =            1
     number of electrons       =       120.00
     number of Kohn-Sham states=          150
     kinetic-energy cutoff     =      60.0000  Ry
     charge density cutoff     =     240.0000  Ry
     Exchange-correlation= PBESOL
                           (   1   4  10   8   0   0   0)

     celldm(1)=   4.765900  celldm(2)=   0.000000  celldm(3)=  19.595920
     celldm(4)=   0.000000  celldm(5)=   0.000000  celldm(6)=   0.000000

     crystal axes: (cart. coord. in units of alat)
               a(1) = (   1.000000   0.000000   0.000000 )  
               a(2) = (  -0.500000   0.866025   0.000000 )  
               a(3) = (   0.000000   0.000000  17.146430 )  

     reciprocal axes: (cart. coord. in units 2 pi/alat)
               b(1) = (  1.000000  0.577350  0.000000 )  
               b(2) = (  0.000000  1.154701  0.000000 )  
               b(3) = (  0.000000  0.000000  0.058321 )  


     PseudoPot. # 1 for C  read from file:
     ../pseudo/C.rel-pbesol-nc.UPF
     MD5 check sum: f9fc97e0a2262c405c2ea375396131e1
     Pseudo is Norm-conserving, Zval =  4.0
     Generated using "atomic" code by A. Dal Corso v.5.0.99 svn rev. 10869
     Using radial grid of 1073 points,  1 beta functions with: 
                l(1) =   1

     atomic species   valence    mass     pseudopotential
        C              4.00    12.00000     C ( 1.00)

     12 Sym. Ops., with inversion, found (10 have fractional translation)


                                    s                        frac. trans.

      isym =  1     identity                                     

 cryst.   s( 1) = (     1          0          0      )
                  (     0          1          0      )
                  (     0          0          1      )

 cart.    s( 1) = (  1.0000000  0.0000000  0.0000000 )
                  (  0.0000000  1.0000000  0.0000000 )
                  (  0.0000000  0.0000000  1.0000000 )


      isym =  2     180 deg rotation - cart. axis [1,0,0]        

 cryst.   s( 2) = (     1          0          0      )
                  (    -1         -1          0      )
                  (     0          0         -1      )

 cart.    s( 2) = (  1.0000000  0.0000000  0.0000000 )
                  (  0.0000000 -1.0000000  0.0000000 )
                  (  0.0000000  0.0000000 -1.0000000 )


      isym =  3     120 deg rotation - cryst. axis [0,0,1]       

 cryst.   s( 3) = (     0          1          0      )    f =(  0.3333333 )
                  (    -1         -1          0      )       ( -0.3333333 )
                  (     0          0          1      )       (  0.0000000 )

 cart.    s( 3) = ( -0.5000000 -0.8660254  0.0000000 )    f =(  0.4999999 )
                  (  0.8660254 -0.5000000  0.0000000 )       ( -0.2886751 )
                  (  0.0000000  0.0000000  1.0000000 )       (  0.0000000 )


      isym =  4     120 deg rotation - cryst. axis [0,0,-1]      

 cryst.   s( 4) = (    -1         -1          0      )    f =( -0.3333334 )
                  (     1          0          0      )       (  0.3333333 )
                  (     0          0          1      )       (  0.0000000 )

 cart.    s( 4) = ( -0.5000000  0.8660254  0.0000000 )    f =( -0.5000001 )
                  ( -0.8660254 -0.5000000  0.0000000 )       (  0.2886751 )
                  (  0.0000000  0.0000000  1.0000000 )       (  0.0000000 )


      isym =  5     180 deg rotation - cryst. axis [0,1,0]       

 cryst.   s( 5) = (    -1         -1          0      )    f =( -0.3333334 )
                  (     0          1          0      )       (  0.3333333 )
                  (     0          0         -1      )       (  0.0000000 )

 cart.    s( 5) = ( -0.5000000 -0.8660254  0.0000000 )    f =( -0.5000001 )
                  ( -0.8660254  0.5000000  0.0000000 )       (  0.2886751 )
                  (  0.0000000  0.0000000 -1.0000000 )       (  0.0000000 )


      isym =  6     180 deg rotation - cryst. axis [1,1,0]       

 cryst.   s( 6) = (     0          1          0      )    f =(  0.3333333 )
                  (     1          0          0      )       ( -0.3333333 )
                  (     0          0         -1      )       (  0.0000000 )

 cart.    s( 6) = ( -0.5000000  0.8660254  0.0000000 )    f =(  0.4999999 )
                  (  0.8660254  0.5000000  0.0000000 )       ( -0.2886751 )
                  (  0.0000000  0.0000000 -1.0000000 )       (  0.0000000 )


      isym =  7     inversion                                    

 cryst.   s( 7) = (    -1          0          0      )    f =( -0.3333334 )
                  (     0         -1          0      )       (  0.0000000 )
                  (     0          0         -1      )       (  0.0000000 )

 cart.    s( 7) = ( -1.0000000  0.0000000  0.0000000 )    f =( -0.3333334 )
                  (  0.0000000 -1.0000000  0.0000000 )       (  0.0000000 )
                  (  0.0000000  0.0000000 -1.0000000 )       (  0.0000000 )


      isym =  8     inv. 180 deg rotation - cart. axis [1,0,0]   

 cryst.   s( 8) = (    -1          0          0      )    f =( -0.3333334 )
                  (     1          1          0      )       (  0.0000000 )
                  (     0          0          1      )       (  0.0000000 )

 cart.    s( 8) = ( -1.0000000  0.0000000  0.0000000 )    f =( -0.3333334 )
                  (  0.0000000  1.0000000  0.0000000 )       (  0.0000000 )
                  (  0.0000000  0.0000000  1.0000000 )       (  0.0000000 )


      isym =  9     inv. 120 deg rotation - cryst. axis [0,0,1]  

 cryst.   s( 9) = (     0         -1          0      )    f =(  0.3333333 )
                  (     1          1          0      )       (  0.3333333 )
                  (     0          0         -1      )       (  0.0000000 )

 cart.    s( 9) = (  0.5000000  0.8660254  0.0000000 )    f =(  0.1666666 )
                  ( -0.8660254  0.5000000  0.0000000 )       (  0.2886751 )
                  (  0.0000000  0.0000000 -1.0000000 )       (  0.0000000 )


      isym = 10     inv. 120 deg rotation - cryst. axis [0,0,-1] 

 cryst.   s(10) = (     1          1          0      )    f =(  0.0000000 )
                  (    -1          0          0      )       ( -0.3333333 )
                  (     0          0         -1      )       (  0.0000000 )

 cart.    s(10) = (  0.5000000 -0.8660254  0.0000000 )    f =(  0.1666666 )
                  (  0.8660254  0.5000000  0.0000000 )       ( -0.2886751 )
                  (  0.0000000  0.0000000 -1.0000000 )       (  0.0000000 )


      isym = 11     inv. 180 deg rotation - cryst. axis [0,1,0]  

 cryst.   s(11) = (     1          1          0      )    f =(  0.0000000 )
                  (     0         -1          0      )       ( -0.3333333 )
                  (     0          0          1      )       (  0.0000000 )

 cart.    s(11) = (  0.5000000  0.8660254  0.0000000 )    f =(  0.1666666 )
                  (  0.8660254 -0.5000000  0.0000000 )       ( -0.2886751 )
                  (  0.0000000  0.0000000  1.0000000 )       (  0.0000000 )


      isym = 12     inv. 180 deg rotation - cryst. axis [1,1,0]  

 cryst.   s(12) = (     0         -1          0      )    f =(  0.3333333 )
                  (    -1          0          0      )       (  0.3333333 )
                  (     0          0          1      )       (  0.0000000 )

 cart.    s(12) = (  0.5000000 -0.8660254  0.0000000 )    f =(  0.1666666 )
                  ( -0.8660254 -0.5000000  0.0000000 )       (  0.2886751 )
                  (  0.0000000  0.0000000  1.0000000 )       (  0.0000000 )


     point group D_3d (-3m) 
     there are  6 classes
     the character table:

       E     2C3   3C2'  i     2S6   3s_d 
A_1g   1.00  1.00  1.00  1.00  1.00  1.00
A_2g   1.00  1.00 -1.00  1.00  1.00 -1.00
E_g    2.00 -1.00  0.00  2.00 -1.00  0.00
A_1u   1.00  1.00  1.00 -1.00 -1.00 -1.00
A_2u   1.00  1.00 -1.00 -1.00 -1.00  1.00
E_u    2.00 -1.00  0.00 -2.00  1.00  0.00

     the symmetry operations in each class and the name of the first element:

     E        1
          identity                                               
     2C3      3    4
          120 deg rotation - cryst. axis [0,0,1]                 
     3C2'     2    5    6
          180 deg rotation - cart. axis [1,0,0]                  
     i        7
          inversion                                              
     2S6      9   10
          inv. 120 deg rotation - cryst. axis [0,0,1]            
     3s_d     8   11   12
          inv. 180 deg rotation - cart. axis [1,0,0]             

   Cartesian axes

     site n.     atom                  positions (alat units)
         1           C   tau(   1) = (  -0.3333333   0.0000000  -5.8175385  )
         2           C   tau(   2) = (   0.1666666   0.2886751  -5.6134137  )
         3           C   tau(   3) = (   0.1666666   0.2886751  -5.0010409  )
         4           C   tau(   4) = (   0.1666666  -0.2886751  -4.7969178  )
         5           C   tau(   5) = (   0.1666666  -0.2886751  -4.1845468  )
         6           C   tau(   6) = (  -0.3333333   0.0000000  -3.9804220  )
         7           C   tau(   7) = (  -0.3333333   0.0000000  -3.3680492  )
         8           C   tau(   8) = (   0.1666666   0.2886751  -3.1639244  )
         9           C   tau(   9) = (   0.1666666   0.2886751  -2.5515517  )
        10           C   tau(  10) = (   0.1666666  -0.2886751  -2.3474286  )
        11           C   tau(  11) = (   0.1666666  -0.2886751  -1.7350558  )
        12           C   tau(  12) = (  -0.3333333   0.0000000  -1.5309310  )
        13           C   tau(  13) = (  -0.3333333   0.0000000  -0.9185583  )
        14           C   tau(  14) = (   0.1666666   0.2886751  -0.7144334  )
        15           C   tau(  15) = (   0.1666666   0.2886751  -0.1020607  )
        16           C   tau(  16) = (   0.1666666  -0.2886751   0.1020607  )
        17           C   tau(  17) = (   0.1666666  -0.2886751   0.7144334  )
        18           C   tau(  18) = (  -0.3333333   0.0000000   0.9185583  )
        19           C   tau(  19) = (  -0.3333333   0.0000000   1.5309310  )
        20           C   tau(  20) = (   0.1666666   0.2886751   1.7350558  )
        21           C   tau(  21) = (   0.1666666   0.2886751   2.3474286  )
        22           C   tau(  22) = (   0.1666666  -0.2886751   2.5515517  )
        23           C   tau(  23) = (   0.1666666  -0.2886751   3.1639244  )
        24           C   tau(  24) = (  -0.3333333   0.0000000   3.3680492  )
        25           C   tau(  25) = (  -0.3333333   0.0000000   3.9804220  )
        26           C   tau(  26) = (   0.1666666   0.2886751   4.1845468  )
        27           C   tau(  27) = (   0.1666666   0.2886751   4.7969178  )
        28           C   tau(  28) = (   0.1666666  -0.2886751   5.0010409  )
        29           C   tau(  29) = (   0.1666666  -0.2886751   5.6134137  )
        30           C   tau(  30) = (  -0.3333333   0.0000000   5.8175385  )

   Crystallographic axes

     site n.     atom                  positions (cryst. coord.)
         1           C   tau(   1) = ( -0.3333333  0.0000000 -0.3392857  )
         2           C   tau(   2) = (  0.3333333  0.3333333 -0.3273809  )
         3           C   tau(   3) = (  0.3333333  0.3333333 -0.2916666  )
         4           C   tau(   4) = ( -0.0000000 -0.3333333 -0.2797619  )
         5           C   tau(   5) = ( -0.0000000 -0.3333333 -0.2440477  )
         6           C   tau(   6) = ( -0.3333333  0.0000000 -0.2321429  )
         7           C   tau(   7) = ( -0.3333333  0.0000000 -0.1964286  )
         8           C   tau(   8) = (  0.3333333  0.3333333 -0.1845238  )
         9           C   tau(   9) = (  0.3333333  0.3333333 -0.1488095  )
        10           C   tau(  10) = ( -0.0000000 -0.3333333 -0.1369048  )
        11           C   tau(  11) = ( -0.0000000 -0.3333333 -0.1011905  )
        12           C   tau(  12) = ( -0.3333333  0.0000000 -0.0892857  )
        13           C   tau(  13) = ( -0.3333333  0.0000000 -0.0535714  )
        14           C   tau(  14) = (  0.3333333  0.3333333 -0.0416666  )
        15           C   tau(  15) = (  0.3333333  0.3333333 -0.0059523  )
        16           C   tau(  16) = ( -0.0000000 -0.3333333  0.0059523  )
        17           C   tau(  17) = ( -0.0000000 -0.3333333  0.0416666  )
        18           C   tau(  18) = ( -0.3333333  0.0000000  0.0535714  )
        19           C   tau(  19) = ( -0.3333333  0.0000000  0.0892857  )
        20           C   tau(  20) = (  0.3333333  0.3333333  0.1011905  )
        21           C   tau(  21) = (  0.3333333  0.3333333  0.1369048  )
        22           C   tau(  22) = ( -0.0000000 -0.3333333  0.1488095  )
        23           C   tau(  23) = ( -0.0000000 -0.3333333  0.1845238  )
        24           C   tau(  24) = ( -0.3333333  0.0000000  0.1964286  )
        25           C   tau(  25) = ( -0.3333333  0.0000000  0.2321429  )
        26           C   tau(  26) = (  0.3333333  0.3333333  0.2440477  )
        27           C   tau(  27) = (  0.3333333  0.3333333  0.2797619  )
        28           C   tau(  28) = ( -0.0000000 -0.3333333  0.2916666  )
        29           C   tau(  29) = ( -0.0000000 -0.3333333  0.3273809  )
        30           C   tau(  30) = ( -0.3333333  0.0000000  0.3392857  )

     number of k points=    25
                       cart. coord. in units 2pi/alat
        k(    1) = (   0.0000000   0.0000000   0.0000000), wk =   0.0800000
        k(    2) = (   0.0000000   0.2309401   0.0000000), wk =   0.0800000
        k(    3) = (   0.0000000   0.4618802   0.0000000), wk =   0.0800000
        k(    4) = (   0.0000000   0.6928203   0.0000000), wk =   0.0800000
        k(    5) = (   0.0000000   0.9237604   0.0000000), wk =   0.0800000
        k(    6) = (   0.2000000   0.1154701   0.0000000), wk =   0.0800000
        k(    7) = (   0.2000000   0.3464102   0.0000000), wk =   0.0800000
        k(    8) = (   0.2000000   0.5773503   0.0000000), wk =   0.0800000
        k(    9) = (   0.2000000   0.8082904   0.0000000), wk =   0.0800000
        k(   10) = (   0.2000000   1.0392305   0.0000000), wk =   0.0800000
        k(   11) = (   0.4000000   0.2309401   0.0000000), wk =   0.0800000
        k(   12) = (   0.4000000   0.4618802   0.0000000), wk =   0.0800000
        k(   13) = (   0.4000000   0.6928203   0.0000000), wk =   0.0800000
        k(   14) = (   0.4000000   0.9237604   0.0000000), wk =   0.0800000
        k(   15) = (   0.4000000   1.1547005   0.0000000), wk =   0.0800000
        k(   16) = (   0.6000000   0.3464102   0.0000000), wk =   0.0800000
        k(   17) = (   0.6000000   0.5773503   0.0000000), wk =   0.0800000
        k(   18) = (   0.6000000   0.8082904   0.0000000), wk =   0.0800000
        k(   19) = (   0.6000000   1.0392305   0.0000000), wk =   0.0800000
        k(   20) = (   0.6000000   1.2701706   0.0000000), wk =   0.0800000
        k(   21) = (   0.8000000   0.4618802   0.0000000), wk =   0.0800000
        k(   22) = (   0.8000000   0.6928203   0.0000000), wk =   0.0800000
        k(   23) = (   0.8000000   0.9237604   0.0000000), wk =   0.0800000
        k(   24) = (   0.8000000   1.1547005   0.0000000), wk =   0.0800000
        k(   25) = (   0.8000000   1.3856406   0.0000000), wk =   0.0800000

                       cryst. coord.
        k(    1) = (   0.0000000   0.0000000   0.0000000), wk =   0.0800000
        k(    2) = (   0.0000000   0.2000000   0.0000000), wk =   0.0800000
        k(    3) = (   0.0000000   0.4000000   0.0000000), wk =   0.0800000
        k(    4) = (   0.0000000   0.6000000   0.0000000), wk =   0.0800000
        k(    5) = (   0.0000000   0.8000000   0.0000000), wk =   0.0800000
        k(    6) = (   0.2000000   0.0000000   0.0000000), wk =   0.0800000
        k(    7) = (   0.2000000   0.2000000   0.0000000), wk =   0.0800000
        k(    8) = (   0.2000000   0.4000000   0.0000000), wk =   0.0800000
        k(    9) = (   0.2000000   0.6000000   0.0000000), wk =   0.0800000
        k(   10) = (   0.2000000   0.8000000   0.0000000), wk =   0.0800000
        k(   11) = (   0.4000000   0.0000000   0.0000000), wk =   0.0800000
        k(   12) = (   0.4000000   0.2000000   0.0000000), wk =   0.0800000
        k(   13) = (   0.4000000   0.4000000   0.0000000), wk =   0.0800000
        k(   14) = (   0.4000000   0.6000000   0.0000000), wk =   0.0800000
        k(   15) = (   0.4000000   0.8000000   0.0000000), wk =   0.0800000
        k(   16) = (   0.6000000   0.0000000   0.0000000), wk =   0.0800000
        k(   17) = (   0.6000000   0.2000000   0.0000000), wk =   0.0800000
        k(   18) = (   0.6000000   0.4000000   0.0000000), wk =   0.0800000
        k(   19) = (   0.6000000   0.6000000   0.0000000), wk =   0.0800000
        k(   20) = (   0.6000000   0.8000000   0.0000000), wk =   0.0800000
        k(   21) = (   0.8000000   0.0000000   0.0000000), wk =   0.0800000
        k(   22) = (   0.8000000   0.2000000   0.0000000), wk =   0.0800000
        k(   23) = (   0.8000000   0.4000000   0.0000000), wk =   0.0800000
        k(   24) = (   0.8000000   0.6000000   0.0000000), wk =   0.0800000
        k(   25) = (   0.8000000   0.8000000   0.0000000), wk =   0.0800000

     Dense  grid:   101125 G-vectors     FFT dimensions: (  24,  24, 405)

     Dynamical RAM for                 wfc:      14.44 MB

     Dynamical RAM for     wfc (w. buffer):      14.44 MB

     Dynamical RAM for           str. fact:       0.77 MB

     Dynamical RAM for           local pot:       0.00 MB

     Dynamical RAM for          nlocal pot:       8.66 MB

     Dynamical RAM for                qrad:       0.03 MB

     Dynamical RAM for          rho,v,vnew:       4.99 MB

     Dynamical RAM for           G-vectors:       3.28 MB

     Dynamical RAM for          h,s,v(r/c):      16.48 MB

     Dynamical RAM for          <psi|beta>:       0.21 MB

     Dynamical RAM for                 psi:      57.75 MB

     Dynamical RAM for                hpsi:      57.75 MB

     Dynamical RAM for      wfcinit/wfcrot:      29.39 MB

     Estimated static dynamical RAM per process >      38.17 MB

     Estimated max dynamical RAM per process >     170.36 MB

     Estimated total dynamical RAM >       5.32 GB

     The potential is recalculated from file :
     temp/diam.slab.save/charge-density

     Starting wfcs are  120 randomized atomic wfcs +   30 random wfcs

     Band Structure Calculation
     Davidson diagonalization with overlap

     Computing kpt #:     1  of     2 on this pool
     total cpu time spent up to now is       54.3 secs

     Computing kpt #:     2  of     2 on this pool
     total cpu time spent up to now is       87.9 secs

     ethr =  8.33E-14,  avg # of iterations = 49.8

     total cpu time spent up to now is      106.2 secs

     End of band structure calculation

          k = 0.0000 0.0000 0.0000 ( 12531 PWs)   bands (ev):

   -14.1565 -14.0299 -13.8380 -13.5880 -13.2833 -12.9263 -12.5187 -12.0611
   -11.5545 -11.0007 -10.4031  -9.7686  -9.1155  -8.4997  -8.2671  -5.7862
    -5.0420  -4.1585  -3.2041  -2.2000  -1.1566  -0.0807   1.0193   2.1304
     3.2389   4.3257   4.5540   4.5540   4.6424   4.6424   4.7743   4.7743
     4.9437   4.9437   5.1467   5.1467   5.3632   5.3796   5.3796   5.6393
     5.6393   5.9207   5.9207   6.2177   6.2177   6.3016   6.5219   6.5219
     6.8185   6.8185   7.0426   7.0839   7.0839   7.2824   7.2824   7.8699
     7.8699   7.8718   7.8718   8.7385   8.7465  13.0352  13.0352  13.1195
    13.2783  13.2783  13.5279  13.6174  13.6174  13.9719  14.0053  14.0058
    14.0058  14.3389  14.4067  14.4067  14.5613  14.7885  14.7885  15.0171
    15.1260  15.1260  15.2213  15.4023  15.4023  15.5028  15.6086  15.6086
    15.6204  15.7445  15.7445  15.8199  15.8199  15.8611  15.8611  15.8623
    15.8623  15.8750  16.0008  16.1453  16.2125  16.2844  16.3033  16.7342
    16.7342  16.7343  16.7343  16.8878  18.2031  18.9044  19.6873  20.6210
    20.7339  20.8982  21.1125  21.3137  21.4994  21.6301  21.9368  22.1765
    22.4325  22.6083  22.7507  22.8194  23.0654  23.1228  24.0580  26.3017
    26.4717  26.7285  26.7720  27.1480  27.3570  27.6327  27.7465  27.9163
    28.0173  28.2678  28.4275  28.7599  28.8866  29.0572  30.1856  30.1856
    30.1870  30.1870  30.3328  30.5156  30.5156  30.5223

          k = 0.0000 0.2309 0.0000 ( 12504 PWs)   bands (ev):

   -13.1711 -13.0454 -12.8552 -12.6074 -12.3054 -11.9520 -11.5487 -11.0966
   -10.5970 -10.0516  -9.4641  -8.8420  -8.2045  -7.6047  -7.3924  -4.9187
    -4.2076  -3.3650  -2.4617  -1.5233  -0.5730   0.3276   0.7593   0.9038
     0.9322   1.1367   1.3967   1.5691   1.7275   2.0125   2.3627   2.5100
     2.7392   2.9124   3.0200   3.1093   3.1812   3.3817   3.3881   3.5085
     3.6348   3.8001   3.9159   4.0475   4.2259   4.2284   4.5501   4.5581
     4.6856   4.9046   5.1734   5.2532   5.5881   5.7630   5.8854   6.1084
     6.1693   6.6095   6.6109   8.6899   8.6900  12.1554  12.4507  12.8498
    13.2724  13.6501  13.9612  14.2468  14.5433  14.6126  14.8466  14.8730
    15.1043  15.1707  15.2482  15.2740  15.3786  15.5520  15.5922  15.6972
    15.7855  15.9664  16.0707  16.1858  16.3258  16.5012  16.6836  16.7539
    16.8804  17.1670  17.3233  17.6178  17.8365  18.0251  18.1070  18.1647
    18.3834  18.4256  18.4902  18.6890  18.7733  18.9350  18.9406  19.0461
    19.1045  19.2438  19.3440  19.3950  19.4242  19.4995  19.5242  19.5250
    19.8702  20.0804  20.5219  20.8594  20.9645  21.0386  21.1964  21.3588
    21.4339  21.6353  21.7872  22.1748  22.4489  22.5916  24.8493  26.1449
    26.5578  26.9983  27.2051  27.3158  27.4836  27.5149  27.5690  27.6737
    27.8058  27.8562  27.9096  27.9489  28.0961  28.1128  28.1479  28.3694
    28.4057  28.5821  28.6032  28.7650  29.0082  29.1205

          k = 0.0000 0.4619 0.0000 ( 12668 PWs)   bands (ev):

   -10.2987 -10.1781  -9.9965  -9.7609  -9.4755  -9.1441  -8.7700  -8.3567
    -7.9089  -7.4332  -6.9397  -6.4399  -5.9418  -5.4225  -5.1922  -4.9051
    -4.7514  -4.5337  -4.4602  -4.2743  -4.1182  -3.8769  -3.5101  -3.0825
    -2.6094  -2.1069  -1.7005  -1.5776  -1.1721  -1.0511  -0.6154  -0.4895
    -0.4389   0.2025   0.8310   1.2493   1.3014   1.3634   1.4002   1.5342
     1.7018   1.7536   2.0152   2.1904   2.3136   2.6431   2.7818   2.9963
     3.3632   3.3881   3.7312   3.9442   4.0838   4.3894   4.3970   4.6345
     4.6691   5.1048   5.1067   8.5044   8.5046  11.6279  11.9219  12.2602
    12.5338  12.8093  13.1252  13.4295  13.4848  13.8639  13.8842  14.2989
    14.4930  14.7509  15.1120  15.2936  15.5468  15.7855  15.8829  16.0543
    16.2094  16.2778  16.3347  16.5007  16.6948  16.7061  17.0491  17.2979
    17.3639  17.7636  17.9840  18.0992  18.5051  18.7220  18.7510  19.0781
    19.4379  19.4833  19.5292  20.2231  20.2411  20.3145  20.3667  20.9706
    21.2467  21.4796  21.5764  21.6463  22.0808  22.2445  22.2886  22.4402
    22.6507  22.7293  22.7452  22.7975  22.9395  23.1303  23.1537  23.3892
    23.4326  23.4466  23.5404  23.6607  24.0006  24.9115  24.9735  25.4991
    25.7229  25.9593  26.0580  26.7076  26.9554  27.6663  27.8370  27.8917
    28.2093  28.3853  28.4194  28.6159  28.7635  28.9609  29.1579  29.3978
    29.4831  29.5733  29.6078  29.8108  30.0562  30.2226

          k = 0.0000 0.6928 0.0000 ( 12668 PWs)   bands (ev):

   -10.2987 -10.1781  -9.9965  -9.7609  -9.4755  -9.1441  -8.7700  -8.3567
    -7.9089  -7.4332  -6.9397  -6.4399  -5.9418  -5.4225  -5.1922  -4.9051
    -4.7514  -4.5337  -4.4602  -4.2743  -4.1182  -3.8769  -3.5101  -3.0825
    -2.6094  -2.1069  -1.7005  -1.5776  -1.1721  -1.0511  -0.6154  -0.4895
    -0.4389   0.2025   0.8310   1.2493   1.3014   1.3634   1.4002   1.5342
     1.7018   1.7536   2.0152   2.1904   2.3136   2.6431   2.7818   2.9963
     3.3632   3.3881   3.7312   3.9442   4.0838   4.3894   4.3970   4.6345
     4.6691   5.1048   5.1067   8.5044   8.5046  11.6279  11.9219  12.2602
    12.5338  12.8093  13.1252  13.4295  13.4848  13.8639  13.8842  14.2989
    14.4930  14.7509  15.1120  15.2936  15.5468  15.7855  15.8829  16.0543
    16.2094  16.2778  16.3347  16.5007  16.6948  16.7061  17.0491  17.2979
    17.3639  17.7636  17.9840  18.0992  18.5051  18.7220  18.7510  19.0781
    19.4379  19.4833  19.5292  20.2231  20.2411  20.3145  20.3667  20.9706
    21.2467  21.4796  21.5764  21.6463  22.0808  22.2445  22.2886  22.4402
    22.6507  22.7293  22.7452  22.7975  22.9395  23.1303  23.1537  23.3892
    23.4326  23.4466  23.5404  23.6607  24.0006  24.9115  24.9735  25.4991
    25.7229  25.9593  26.0580  26.7076  26.9554  27.6663  27.8370  27.8917
    28.2093  28.3853  28.4194  28.6159  28.7635  28.9609  29.1579  29.3978
    29.4831  29.5733  29.6078  29.8108  30.0562  30.2226

          k = 0.0000 0.9238 0.0000 ( 12504 PWs)   bands (ev):

   -13.1711 -13.0454 -12.8552 -12.6074 -12.3054 -11.9520 -11.5487 -11.0966
   -10.5970 -10.0516  -9.4641  -8.8420  -8.2045  -7.6047  -7.3924  -4.9187
    -4.2076  -3.3650  -2.4617  -1.5233  -0.5730   0.3276   0.7593   0.9038
     0.9322   1.1367   1.3967   1.5691   1.7275   2.0125   2.3627   2.5100
     2.7392   2.9124   3.0200   3.1093   3.1812   3.3817   3.3881   3.5085
     3.6348   3.8001   3.9159   4.0475   4.2259   4.2284   4.5501   4.5581
     4.6856   4.9046   5.1734   5.2532   5.5881   5.7630   5.8854   6.1084
     6.1693   6.6095   6.6109   8.6899   8.6900  12.1554  12.4507  12.8498
    13.2724  13.6501  13.9612  14.2468  14.5433  14.6126  14.8466  14.8730
    15.1043  15.1707  15.2482  15.2740  15.3786  15.5520  15.5922  15.6972
    15.7855  15.9664  16.0707  16.1858  16.3258  16.5012  16.6836  16.7539
    16.8804  17.1670  17.3233  17.6178  17.8365  18.0251  18.1070  18.1647
    18.3834  18.4256  18.4902  18.6890  18.7733  18.9350  18.9406  19.0461
    19.1045  19.2438  19.3440  19.3950  19.4242  19.4995  19.5242  19.5250
    19.8702  20.0804  20.5219  20.8594  20.9645  21.0386  21.1964  21.3588
    21.4339  21.6353  21.7872  22.1748  22.4489  22.5916  24.8493  26.1449
    26.5578  26.9983  27.2051  27.3158  27.4836  27.5149  27.5690  27.6737
    27.8058  27.8562  27.9096  27.9489  28.0961  28.1128  28.1479  28.3694
    28.4057  28.5821  28.6032  28.7650  29.0082  29.1205

          k = 0.2000 0.1155 0.0000 ( 12504 PWs)   bands (ev):

   -13.1711 -13.0454 -12.8552 -12.6074 -12.3054 -11.9520 -11.5487 -11.0966
   -10.5970 -10.0516  -9.4641  -8.8420  -8.2045  -7.6047  -7.3924  -4.9187
    -4.2076  -3.3650  -2.4617  -1.5233  -0.5730   0.3276   0.7593   0.9038
     0.9322   1.1367   1.3967   1.5691   1.7275   2.0125   2.3627   2.5100
     2.7392   2.9124   3.0200   3.1093   3.1812   3.3817   3.3881   3.5085
     3.6348   3.8001   3.9159   4.0475   4.2259   4.2284   4.5501   4.5581
     4.6856   4.9046   5.1734   5.2532   5.5881   5.7630   5.8854   6.1084
     6.1693   6.6095   6.6109   8.6899   8.6900  12.1554  12.4507  12.8498
    13.2724  13.6501  13.9612  14.2468  14.5433  14.6126  14.8466  14.8730
    15.1043  15.1707  15.2482  15.2740  15.3786  15.5520  15.5922  15.6972
    15.7855  15.9664  16.0707  16.1858  16.3258  16.5012  16.6836  16.7539
    16.8804  17.1670  17.3233  17.6178  17.8365  18.0251  18.1070  18.1647
    18.3834  18.4256  18.4902  18.6890  18.7733  18.9350  18.9406  19.0461
    19.1045  19.2438  19.3440  19.3950  19.4242  19.4995  19.5242  19.5250
    19.8702  20.0804  20.5219  20.8594  20.9645  21.0386  21.1964  21.3588
    21.4339  21.6353  21.7872  22.1748  22.4489  22.5916  24.8493  26.1449
    26.5578  26.9983  27.2051  27.3158  27.4836  27.5149  27.5690  27.6737
    27.8058  27.8562  27.9096  27.9489  28.0961  28.1128  28.1479  28.3694
    28.4057  28.5821  28.6032  28.7650  29.0082  29.1205

          k = 0.2000 0.3464 0.0000 ( 12660 PWs)   bands (ev):

   -11.2370 -11.1139 -10.9279 -10.6862 -10.3918 -10.0481  -9.6569  -9.2197
    -8.7387  -8.2164  -7.6567  -7.0683  -6.4683  -5.8925  -5.7069  -3.7734
    -3.2537  -2.7570  -2.3940  -2.1549  -1.9604  -1.7609  -1.5410  -1.3398
    -1.2779  -1.1937  -0.9735  -0.9266  -0.6201  -0.5386  -0.2524  -0.0401
     0.1182   0.3896   0.5486   0.5939   0.6420   0.7699   1.0913   1.1883
     1.5323   1.5398   1.7699   1.9362   2.0376   2.2942   2.3294   2.5101
     2.6644   2.7142   2.8337   2.9711   3.0351   3.3340   3.7518   4.2203
     4.6753   5.0455   5.2755   8.6712   8.6713  13.5613  13.5701  13.9284
    13.9644  14.4443  14.5276  15.0285  15.1664  15.6070  15.6919  16.0838
    16.1676  16.4608  16.6991  16.8642  16.8727  17.0391  17.2818  17.3349
    17.4382  17.5528  17.5677  17.6602  17.7009  17.8210  18.0015  18.0971
    18.1564  18.3416  18.3865  18.4374  18.5754  18.6825  18.7746  18.8072
    18.9008  19.1401  19.1416  19.1751  19.2057  19.2429  19.2557  19.3202
    19.3376  19.5439  19.6157  19.7713  19.8252  19.9687  20.0745  20.2833
    20.4153  20.5158  20.7305  20.7822  20.9014  21.2611  21.4523  21.5387
    22.0542  22.0712  22.3597  22.3889  22.5486  24.3952  26.4868  26.7120
    26.8111  26.9729  27.2829  27.5234  27.8583  27.9093  28.0658  28.1249
    28.1852  28.2307  28.3630  28.3728  28.4270  28.5234  28.5760  28.6054
    28.6578  28.7742  29.0012  29.2083  29.3114  29.6009

          k = 0.2000 0.5774 0.0000 ( 12650 PWs)   bands (ev):

    -7.7492  -7.7477  -7.7057  -7.6824  -7.6079  -7.4969  -7.3472  -7.1600
    -6.9352  -6.6729  -6.3753  -6.0481  -5.7126  -5.4498  -5.3685  -5.1420
    -4.8191  -4.6319  -4.4031  -4.3130  -3.9527  -3.9409  -3.5457  -3.4916
    -3.1526  -3.0586  -2.7817  -2.6980  -2.4258  -2.3925  -1.4616  -1.2655
    -1.0045  -0.9703  -0.9576  -0.7926  -0.6405  -0.4529  -0.1533   0.2061
     0.6263   0.7085   0.7165   1.0906   1.1576   1.1586   1.5084   1.5583
     1.5995   1.8508   2.1187   2.2428   2.3052   2.7211   3.1251   3.3667
     3.3980   3.6019   3.6186   8.5443   8.5444  12.8670  13.3410  14.0191
    14.7277  14.7363  14.8033  15.1214  15.1458  15.5084  15.7031  15.7992
    16.2883  16.3118  16.3860  16.5020  16.6514  16.6967  16.8191  16.9229
    17.1508  17.2431  17.3818  17.4494  17.6593  17.8092  17.9234  18.1667
    18.2070  18.7873  18.8441  19.2715  19.3124  19.4977  19.6483  19.7184
    19.8568  20.0406  20.2605  20.4956  20.5085  20.9216  21.6003  21.8313
    21.9478  22.0500  22.1601  22.1724  22.3517  22.3711  22.4303  22.4921
    22.4943  22.5372  22.5704  22.6313  22.6580  22.7950  22.8934  23.0068
    23.1212  23.2049  23.5764  23.8532  23.9215  24.1433  24.9227  25.0820
    25.4141  25.4315  25.8730  25.8782  26.1243  26.1304  26.4772  26.6095
    26.7125  26.8413  27.2627  27.4139  27.4372  27.5566  27.6076  27.7959
    28.0003  28.2796  29.1493  29.3487  29.5997  29.9746

          k = 0.2000 0.8083 0.0000 ( 12660 PWs)   bands (ev):

   -11.2370 -11.1139 -10.9279 -10.6862 -10.3918 -10.0481  -9.6569  -9.2197
    -8.7387  -8.2164  -7.6567  -7.0683  -6.4683  -5.8925  -5.7069  -3.7734
    -3.2537  -2.7570  -2.3940  -2.1549  -1.9604  -1.7609  -1.5410  -1.3398
    -1.2779  -1.1937  -0.9735  -0.9266  -0.6201  -0.5386  -0.2524  -0.0401
     0.1182   0.3896   0.5486   0.5939   0.6420   0.7699   1.0913   1.1883
     1.5323   1.5398   1.7699   1.9362   2.0376   2.2942   2.3294   2.5101
     2.6644   2.7142   2.8337   2.9711   3.0351   3.3340   3.7518   4.2203
     4.6753   5.0455   5.2755   8.6712   8.6713  13.5613  13.5701  13.9284
    13.9644  14.4443  14.5276  15.0285  15.1664  15.6070  15.6919  16.0838
    16.1676  16.4608  16.6991  16.8642  16.8727  17.0391  17.2818  17.3349
    17.4382  17.5528  17.5677  17.6602  17.7009  17.8210  18.0015  18.0971
    18.1564  18.3416  18.3865  18.4374  18.5754  18.6825  18.7746  18.8072
    18.9008  19.1401  19.1416  19.1751  19.2057  19.2429  19.2557  19.3202
    19.3376  19.5439  19.6157  19.7713  19.8252  19.9687  20.0745  20.2833
    20.4153  20.5158  20.7305  20.7822  20.9014  21.2611  21.4523  21.5387
    22.0542  22.0712  22.3597  22.3889  22.5486  24.3952  26.4868  26.7120
    26.8111  26.9729  27.2829  27.5234  27.8583  27.9093  28.0658  28.1249
    28.1852  28.2307  28.3630  28.3728  28.4270  28.5234  28.5760  28.6054
    28.6578  28.7742  29.0012  29.2083  29.3114  29.6009

          k = 0.2000 1.0392 0.0000 ( 12504 PWs)   bands (ev):

   -13.1711 -13.0454 -12.8552 -12.6074 -12.3054 -11.9520 -11.5487 -11.0966
   -10.5970 -10.0516  -9.4641  -8.8420  -8.2045  -7.6047  -7.3924  -4.9187
    -4.2076  -3.3650  -2.4617  -1.5233  -0.5730   0.3276   0.7593   0.9038
     0.9322   1.1367   1.3967   1.5691   1.7275   2.0125   2.3627   2.5100
     2.7392   2.9124   3.0200   3.1093   3.1812   3.3817   3.3881   3.5085
     3.6348   3.8001   3.9159   4.0475   4.2259   4.2284   4.5501   4.5581
     4.6856   4.9046   5.1734   5.2532   5.5881   5.7630   5.8854   6.1084
     6.1693   6.6095   6.6109   8.6899   8.6900  12.1554  12.4507  12.8498
    13.2724  13.6501  13.9612  14.2468  14.5433  14.6126  14.8466  14.8730
    15.1043  15.1707  15.2482  15.2740  15.3786  15.5520  15.5922  15.6972
    15.7855  15.9664  16.0707  16.1858  16.3258  16.5012  16.6836  16.7539
    16.8804  17.1670  17.3233  17.6178  17.8365  18.0251  18.1070  18.1647
    18.3834  18.4256  18.4902  18.6890  18.7733  18.9350  18.9406  19.0461
    19.1045  19.2438  19.3440  19.3950  19.4242  19.4995  19.5242  19.5250
    19.8702  20.0804  20.5219  20.8594  20.9645  21.0386  21.1964  21.3588
    21.4339  21.6353  21.7872  22.1748  22.4489  22.5916  24.8493  26.1449
    26.5578  26.9983  27.2051  27.3158  27.4836  27.5149  27.5690  27.6737
    27.8058  27.8562  27.9096  27.9489  28.0961  28.1128  28.1479  28.3694
    28.4057  28.5821  28.6032  28.7650  29.0082  29.1205

          k = 0.4000 0.2309 0.0000 ( 12668 PWs)   bands (ev):

   -10.2987 -10.1781  -9.9965  -9.7609  -9.4755  -9.1441  -8.7700  -8.3567
    -7.9089  -7.4332  -6.9397  -6.4399  -5.9418  -5.4225  -5.1922  -4.9051
    -4.7514  -4.5337  -4.4602  -4.2743  -4.1182  -3.8769  -3.5101  -3.0825
    -2.6094  -2.1069  -1.7005  -1.5776  -1.1721  -1.0511  -0.6154  -0.4895
    -0.4389   0.2025   0.8310   1.2493   1.3014   1.3634   1.4002   1.5342
     1.7018   1.7536   2.0152   2.1904   2.3136   2.6431   2.7818   2.9963
     3.3632   3.3881   3.7312   3.9442   4.0838   4.3894   4.3970   4.6345
     4.6691   5.1048   5.1067   8.5044   8.5046  11.6279  11.9219  12.2602
    12.5338  12.8093  13.1252  13.4295  13.4848  13.8639  13.8842  14.2989
    14.4930  14.7509  15.1120  15.2936  15.5468  15.7855  15.8829  16.0543
    16.2094  16.2778  16.3347  16.5007  16.6948  16.7061  17.0491  17.2979
    17.3639  17.7636  17.9840  18.0992  18.5051  18.7220  18.7510  19.0781
    19.4379  19.4833  19.5292  20.2231  20.2411  20.3145  20.3667  20.9706
    21.2467  21.4796  21.5764  21.6463  22.0808  22.2445  22.2886  22.4402
    22.6507  22.7293  22.7452  22.7975  22.9395  23.1303  23.1537  23.3892
    23.4326  23.4466  23.5404  23.6607  24.0006  24.9115  24.9735  25.4991
    25.7229  25.9593  26.0580  26.7076  26.9554  27.6663  27.8370  27.8917
    28.2093  28.3853  28.4194  28.6159  28.7635  28.9609  29.1579  29.3978
    29.4831  29.5733  29.6078  29.8108  30.0562  30.2226

          k = 0.4000 0.4619 0.0000 ( 12650 PWs)   bands (ev):

    -7.7492  -7.7477  -7.7057  -7.6824  -7.6078  -7.4969  -7.3472  -7.1600
    -6.9352  -6.6729  -6.3753  -6.0481  -5.7126  -5.4498  -5.3685  -5.1420
    -4.8191  -4.6319  -4.4031  -4.3130  -3.9527  -3.9409  -3.5457  -3.4916
    -3.1526  -3.0586  -2.7817  -2.6980  -2.4258  -2.3925  -1.4616  -1.2655
    -1.0045  -0.9703  -0.9576  -0.7926  -0.6405  -0.4529  -0.1533   0.2061
     0.6263   0.7085   0.7165   1.0906   1.1576   1.1586   1.5084   1.5583
     1.5995   1.8508   2.1187   2.2428   2.3052   2.7211   3.1251   3.3667
     3.3980   3.6019   3.6186   8.5443   8.5444  12.8670  13.3410  14.0191
    14.7277  14.7363  14.8033  15.1214  15.1458  15.5084  15.7031  15.7992
    16.2883  16.3118  16.3860  16.5020  16.6514  16.6967  16.8191  16.9229
    17.1508  17.2431  17.3818  17.4494  17.6593  17.8092  17.9234  18.1667
    18.2070  18.7873  18.8441  19.2715  19.3124  19.4977  19.6483  19.7184
    19.8568  20.0406  20.2605  20.4956  20.5085  20.9216  21.6003  21.8313
    21.9477  22.0500  22.1601  22.1724  22.3517  22.3711  22.4303  22.4921
    22.4943  22.5372  22.5704  22.6313  22.6580  22.7950  22.8934  23.0068
    23.1212  23.2049  23.5764  23.8532  23.9215  24.1433  24.9227  25.0820
    25.4141  25.4315  25.8730  25.8782  26.1243  26.1304  26.4772  26.6095
    26.7125  26.8413  27.2627  27.4139  27.4372  27.5566  27.6076  27.7959
    28.0003  28.2796  29.1493  29.3487  29.5997  29.9746

          k = 0.4000 0.6928 0.0000 ( 12650 PWs)   bands (ev):

    -7.7492  -7.7477  -7.7057  -7.6824  -7.6078  -7.4969  -7.3472  -7.1600
    -6.9352  -6.6729  -6.3753  -6.0481  -5.7126  -5.4498  -5.3685  -5.1420
    -4.8191  -4.6319  -4.4031  -4.3130  -3.9527  -3.9409  -3.5457  -3.4916
    -3.1526  -3.0586  -2.7817  -2.6980  -2.4258  -2.3925  -1.4616  -1.2655
    -1.0045  -0.9703  -0.9576  -0.7926  -0.6405  -0.4529  -0.1533   0.2061
     0.6263   0.7085   0.7165   1.0906   1.1576   1.1586   1.5084   1.5583
     1.5995   1.8508   2.1187   2.2428   2.3052   2.7211   3.1251   3.3667
     3.3980   3.6019   3.6186   8.5443   8.5444  12.8670  13.3410  14.0191
    14.7277  14.7363  14.8033  15.1214  15.1458  15.5084  15.7031  15.7992
    16.2883  16.3118  16.3860  16.5020  16.6514  16.6967  16.8191  16.9229
    17.1508  17.2431  17.3818  17.4494  17.6593  17.8092  17.9234  18.1667
    18.2070  18.7873  18.8441  19.2715  19.3124  19.4977  19.6483  19.7184
    19.8568  20.0406  20.2605  20.4956  20.5085  20.9216  21.6003  21.8313
    21.9477  22.0500  22.1601  22.1724  22.3517  22.3711  22.4303  22.4921
    22.4943  22.5372  22.5704  22.6313  22.6580  22.7950  22.8934  23.0068
    23.1212  23.2049  23.5764  23.8532  23.9215  24.1433  24.9227  25.0820
    25.4141  25.4315  25.8730  25.8782  26.1243  26.1304  26.4772  26.6095
    26.7125  26.8413  27.2627  27.4139  27.4372  27.5566  27.6076  27.7959
    28.0003  28.2796  29.1493  29.3487  29.5997  29.9746

          k = 0.4000 0.9238 0.0000 ( 12668 PWs)   bands (ev):

   -10.2987 -10.1781  -9.9965  -9.7609  -9.4755  -9.1441  -8.7700  -8.3567
    -7.9089  -7.4332  -6.9397  -6.4399  -5.9418  -5.4225  -5.1922  -4.9051
    -4.7514  -4.5337  -4.4602  -4.2743  -4.1182  -3.8769  -3.5101  -3.0825
    -2.6094  -2.1069  -1.7005  -1.5776  -1.1721  -1.0511  -0.6154  -0.4895
    -0.4389   0.2025   0.8310   1.2493   1.3014   1.3634   1.4002   1.5342
     1.7018   1.7536   2.0152   2.1904   2.3136   2.6431   2.7818   2.9963
     3.3632   3.3881   3.7312   3.9442   4.0838   4.3894   4.3970   4.6345
     4.6691   5.1048   5.1067   8.5044   8.5046  11.6279  11.9219  12.2602
    12.5338  12.8093  13.1252  13.4295  13.4848  13.8639  13.8842  14.2989
    14.4930  14.7509  15.1120  15.2936  15.5468  15.7855  15.8829  16.0543
    16.2094  16.2778  16.3347  16.5007  16.6948  16.7061  17.0491  17.2979
    17.3639  17.7636  17.9840  18.0992  18.5051  18.7220  18.7510  19.0781
    19.4379  19.4833  19.5292  20.2231  20.2411  20.3145  20.3667  20.9706
    21.2467  21.4796  21.5764  21.6463  22.0808  22.2445  22.2886  22.4402
    22.6507  22.7293  22.7452  22.7975  22.9395  23.1303  23.1537  23.3892
    23.4326  23.4466  23.5404  23.6607  24.0006  24.9115  24.9735  25.4991
    25.7229  25.9593  26.0580  26.7076  26.9554  27.6663  27.8370  27.8917
    28.2093  28.3853  28.4194  28.6159  28.7635  28.9609  29.1579  29.3978
    29.4831  29.5733  29.6078  29.8108  30.0562  30.2226

          k = 0.4000 1.1547 0.0000 ( 12660 PWs)   bands (ev):

   -11.2370 -11.1139 -10.9279 -10.6862 -10.3918 -10.0481  -9.6569  -9.2197
    -8.7387  -8.2164  -7.6567  -7.0683  -6.4683  -5.8925  -5.7069  -3.7734
    -3.2537  -2.7570  -2.3940  -2.1549  -1.9604  -1.7609  -1.5410  -1.3398
    -1.2779  -1.1937  -0.9735  -0.9266  -0.6201  -0.5386  -0.2524  -0.0401
     0.1182   0.3896   0.5486   0.5939   0.6420   0.7699   1.0913   1.1883
     1.5323   1.5398   1.7699   1.9362   2.0376   2.2942   2.3294   2.5101
     2.6644   2.7142   2.8337   2.9711   3.0351   3.3340   3.7518   4.2203
     4.6753   5.0455   5.2755   8.6712   8.6713  13.5613  13.5701  13.9284
    13.9644  14.4443  14.5276  15.0285  15.1664  15.6070  15.6919  16.0838
    16.1676  16.4608  16.6991  16.8642  16.8727  17.0391  17.2818  17.3349
    17.4382  17.5528  17.5677  17.6602  17.7009  17.8210  18.0015  18.0971
    18.1564  18.3416  18.3865  18.4374  18.5754  18.6825  18.7746  18.8072
    18.9008  19.1401  19.1416  19.1751  19.2057  19.2429  19.2557  19.3202
    19.3376  19.5439  19.6157  19.7713  19.8252  19.9687  20.0745  20.2833
    20.4153  20.5158  20.7305  20.7822  20.9014  21.2611  21.4523  21.5387
    22.0542  22.0712  22.3597  22.3889  22.5486  24.3952  26.4868  26.7120
    26.8111  26.9729  27.2829  27.5234  27.8583  27.9093  28.0658  28.1249
    28.1852  28.2307  28.3630  28.3728  28.4270  28.5234  28.5760  28.6054
    28.6578  28.7742  29.0012  29.2083  29.3114  29.6009

          k = 0.6000 0.3464 0.0000 ( 12668 PWs)   bands (ev):

   -10.2987 -10.1781  -9.9965  -9.7609  -9.4755  -9.1441  -8.7700  -8.3567
    -7.9089  -7.4332  -6.9397  -6.4399  -5.9418  -5.4225  -5.1922  -4.9051
    -4.7514  -4.5337  -4.4602  -4.2743  -4.1182  -3.8769  -3.5101  -3.0825
    -2.6094  -2.1069  -1.7005  -1.5776  -1.1721  -1.0511  -0.6154  -0.4895
    -0.4389   0.2025   0.8310   1.2493   1.3014   1.3634   1.4002   1.5342
     1.7018   1.7536   2.0152   2.1904   2.3136   2.6431   2.7818   2.9963
     3.3632   3.3881   3.7312   3.9442   4.0838   4.3894   4.3970   4.6345
     4.6691   5.1048   5.1067   8.5044   8.5046  11.6279  11.9219  12.2602
    12.5338  12.8093  13.1252  13.4295  13.4848  13.8639  13.8842  14.2989
    14.4930  14.7509  15.1120  15.2936  15.5468  15.7855  15.8829  16.0543
    16.2094  16.2778  16.3347  16.5007  16.6948  16.7061  17.0491  17.2979
    17.3639  17.7636  17.9840  18.0992  18.5051  18.7220  18.7510  19.0781
    19.4379  19.4833  19.5292  20.2231  20.2411  20.3145  20.3667  20.9706
    21.2467  21.4796  21.5764  21.6463  22.0808  22.2445  22.2886  22.4402
    22.6507  22.7293  22.7452  22.7975  22.9395  23.1303  23.1537  23.3892
    23.4326  23.4466  23.5404  23.6607  24.0006  24.9115  24.9735  25.4991
    25.7229  25.9593  26.0580  26.7076  26.9554  27.6663  27.8370  27.8917
    28.2093  28.3853  28.4194  28.6159  28.7635  28.9609  29.1579  29.3978
    29.4831  29.5733  29.6078  29.8108  30.0562  30.2226

          k = 0.6000 0.5774 0.0000 ( 12660 PWs)   bands (ev):

   -11.2370 -11.1139 -10.9279 -10.6862 -10.3918 -10.0481  -9.6569  -9.2197
    -8.7387  -8.2164  -7.6567  -7.0683  -6.4683  -5.8925  -5.7069  -3.7734
    -3.2537  -2.7570  -2.3940  -2.1549  -1.9604  -1.7609  -1.5410  -1.3398
    -1.2779  -1.1937  -0.9735  -0.9266  -0.6201  -0.5386  -0.2524  -0.0401
     0.1182   0.3896   0.5486   0.5939   0.6420   0.7699   1.0913   1.1883
     1.5323   1.5398   1.7699   1.9362   2.0376   2.2942   2.3294   2.5101
     2.6644   2.7142   2.8337   2.9711   3.0351   3.3340   3.7518   4.2203
     4.6753   5.0455   5.2755   8.6712   8.6713  13.5613  13.5701  13.9284
    13.9644  14.4443  14.5276  15.0285  15.1664  15.6070  15.6919  16.0838
    16.1676  16.4608  16.6991  16.8642  16.8727  17.0391  17.2818  17.3349
    17.4382  17.5528  17.5677  17.6602  17.7009  17.8210  18.0015  18.0971
    18.1564  18.3416  18.3865  18.4374  18.5754  18.6825  18.7746  18.8072
    18.9008  19.1401  19.1416  19.1751  19.2057  19.2429  19.2557  19.3202
    19.3376  19.5439  19.6157  19.7713  19.8252  19.9687  20.0745  20.2833
    20.4153  20.5158  20.7305  20.7822  20.9014  21.2611  21.4523  21.5387
    22.0542  22.0712  22.3597  22.3889  22.5486  24.3952  26.4868  26.7120
    26.8111  26.9729  27.2829  27.5234  27.8583  27.9093  28.0658  28.1249
    28.1852  28.2307  28.3630  28.3728  28.4270  28.5234  28.5760  28.6054
    28.6578  28.7742  29.0012  29.2083  29.3114  29.6009

          k = 0.6000 0.8083 0.0000 ( 12668 PWs)   bands (ev):

   -10.2987 -10.1781  -9.9965  -9.7609  -9.4755  -9.1441  -8.7700  -8.3567
    -7.9089  -7.4332  -6.9397  -6.4399  -5.9418  -5.4225  -5.1922  -4.9051
    -4.7514  -4.5337  -4.4602  -4.2743  -4.1182  -3.8769  -3.5101  -3.0825
    -2.6094  -2.1069  -1.7005  -1.5776  -1.1721  -1.0511  -0.6154  -0.4895
    -0.4389   0.2025   0.8310   1.2493   1.3014   1.3634   1.4002   1.5342
     1.7018   1.7536   2.0152   2.1904   2.3136   2.6431   2.7818   2.9963
     3.3632   3.3881   3.7312   3.9442   4.0838   4.3894   4.3970   4.6345
     4.6691   5.1048   5.1067   8.5044   8.5046  11.6279  11.9219  12.2602
    12.5338  12.8093  13.1252  13.4295  13.4848  13.8639  13.8842  14.2989
    14.4930  14.7509  15.1120  15.2936  15.5468  15.7855  15.8829  16.0543
    16.2094  16.2778  16.3347  16.5007  16.6948  16.7061  17.0491  17.2979
    17.3639  17.7636  17.9840  18.0992  18.5051  18.7220  18.7510  19.0781
    19.4379  19.4833  19.5292  20.2231  20.2411  20.3145  20.3667  20.9706
    21.2467  21.4796  21.5764  21.6463  22.0808  22.2445  22.2886  22.4402
    22.6507  22.7293  22.7452  22.7975  22.9395  23.1303  23.1537  23.3892
    23.4326  23.4466  23.5404  23.6607  24.0006  24.9115  24.9735  25.4991
    25.7229  25.9593  26.0580  26.7076  26.9554  27.6663  27.8370  27.8917
    28.2093  28.3853  28.4194  28.6159  28.7635  28.9609  29.1579  29.3978
    29.4831  29.5733  29.6078  29.8108  30.0562  30.2226

          k = 0.6000 1.0392 0.0000 ( 12650 PWs)   bands (ev):

    -7.7492  -7.7477  -7.7057  -7.6824  -7.6078  -7.4969  -7.3472  -7.1600
    -6.9352  -6.6729  -6.3753  -6.0481  -5.7126  -5.4498  -5.3685  -5.1420
    -4.8191  -4.6319  -4.4031  -4.3130  -3.9527  -3.9409  -3.5457  -3.4916
    -3.1526  -3.0586  -2.7817  -2.6980  -2.4258  -2.3925  -1.4616  -1.2655
    -1.0045  -0.9703  -0.9576  -0.7926  -0.6405  -0.4529  -0.1533   0.2061
     0.6263   0.7085   0.7165   1.0906   1.1576   1.1586   1.5084   1.5583
     1.5995   1.8508   2.1187   2.2428   2.3052   2.7211   3.1251   3.3667
     3.3980   3.6019   3.6186   8.5443   8.5444  12.8670  13.3410  14.0191
    14.7277  14.7363  14.8033  15.1214  15.1458  15.5084  15.7031  15.7992
    16.2883  16.3118  16.3860  16.5020  16.6514  16.6967  16.8191  16.9229
    17.1508  17.2431  17.3818  17.4494  17.6593  17.8092  17.9234  18.1667
    18.2070  18.7873  18.8441  19.2715  19.3124  19.4977  19.6483  19.7184
    19.8568  20.0406  20.2605  20.4956  20.5085  20.9216  21.6003  21.8313
    21.9477  22.0500  22.1601  22.1724  22.3517  22.3711  22.4303  22.4921
    22.4943  22.5372  22.5704  22.6313  22.6580  22.7950  22.8934  23.0068
    23.1212  23.2049  23.5764  23.8532  23.9215  24.1433  24.9227  25.0820
    25.4141  25.4315  25.8730  25.8782  26.1243  26.1304  26.4772  26.6095
    26.7125  26.8413  27.2627  27.4139  27.4372  27.5566  27.6076  27.7959
    28.0003  28.2796  29.1493  29.3487  29.5997  29.9746

          k = 0.6000 1.2702 0.0000 ( 12650 PWs)   bands (ev):

    -7.7492  -7.7477  -7.7057  -7.6824  -7.6078  -7.4969  -7.3472  -7.1600
    -6.9352  -6.6729  -6.3753  -6.0481  -5.7126  -5.4498  -5.3685  -5.1420
    -4.8191  -4.6319  -4.4031  -4.3130  -3.9527  -3.9409  -3.5457  -3.4916
    -3.1526  -3.0586  -2.7817  -2.6980  -2.4258  -2.3925  -1.4616  -1.2655
    -1.0045  -0.9703  -0.9576  -0.7926  -0.6405  -0.4529  -0.1533   0.2061
     0.6263   0.7085   0.7165   1.0906   1.1576   1.1586   1.5084   1.5583
     1.5995   1.8508   2.1187   2.2428   2.3052   2.7211   3.1251   3.3667
     3.3980   3.6019   3.6186   8.5443   8.5444  12.8670  13.3410  14.0191
    14.7277  14.7363  14.8033  15.1214  15.1458  15.5084  15.7031  15.7992
    16.2883  16.3118  16.3860  16.5020  16.6514  16.6967  16.8191  16.9229
    17.1508  17.2431  17.3818  17.4494  17.6593  17.8092  17.9234  18.1667
    18.2070  18.7873  18.8441  19.2715  19.3124  19.4977  19.6483  19.7184
    19.8568  20.0406  20.2605  20.4956  20.5085  20.9216  21.6003  21.8313
    21.9477  22.0500  22.1601  22.1724  22.3517  22.3711  22.4303  22.4921
    22.4943  22.5372  22.5704  22.6313  22.6580  22.7950  22.8934  23.0068
    23.1212  23.2049  23.5764  23.8532  23.9215  24.1433  24.9227  25.0820
    25.4141  25.4315  25.8730  25.8782  26.1243  26.1304  26.4772  26.6095
    26.7125  26.8413  27.2627  27.4139  27.4372  27.5566  27.6076  27.7959
    28.0003  28.2796  29.1493  29.3487  29.5997  29.9746

          k = 0.8000 0.4619 0.0000 ( 12504 PWs)   bands (ev):

   -13.1711 -13.0454 -12.8552 -12.6074 -12.3054 -11.9520 -11.5487 -11.0966
   -10.5970 -10.0516  -9.4641  -8.8420  -8.2045  -7.6047  -7.3924  -4.9187
    -4.2076  -3.3650  -2.4617  -1.5233  -0.5730   0.3276   0.7593   0.9038
     0.9322   1.1367   1.3967   1.5691   1.7275   2.0125   2.3627   2.5100
     2.7392   2.9124   3.0200   3.1093   3.1812   3.3817   3.3881   3.5085
     3.6348   3.8001   3.9159   4.0475   4.2259   4.2284   4.5501   4.5581
     4.6856   4.9046   5.1734   5.2532   5.5881   5.7630   5.8854   6.1084
     6.1693   6.6095   6.6109   8.6899   8.6900  12.1554  12.4507  12.8498
    13.2724  13.6501  13.9612  14.2468  14.5433  14.6126  14.8466  14.8730
    15.1043  15.1707  15.2482  15.2740  15.3786  15.5520  15.5922  15.6972
    15.7855  15.9664  16.0707  16.1858  16.3258  16.5012  16.6836  16.7539
    16.8804  17.1670  17.3233  17.6178  17.8365  18.0251  18.1070  18.1647
    18.3834  18.4256  18.4902  18.6890  18.7733  18.9350  18.9406  19.0461
    19.1045  19.2438  19.3440  19.3950  19.4242  19.4995  19.5242  19.5250
    19.8702  20.0804  20.5219  20.8594  20.9645  21.0386  21.1964  21.3588
    21.4339  21.6353  21.7872  22.1748  22.4489  22.5916  24.8493  26.1449
    26.5578  26.9983  27.2051  27.3158  27.4836  27.5149  27.5690  27.6737
    27.8058  27.8562  27.9096  27.9489  28.0961  28.1128  28.1479  28.3694
    28.4057  28.5821  28.6032  28.7650  29.0082  29.1205

          k = 0.8000 0.6928 0.0000 ( 12504 PWs)   bands (ev):

   -13.1711 -13.0454 -12.8552 -12.6074 -12.3054 -11.9520 -11.5487 -11.0966
   -10.5970 -10.0516  -9.4641  -8.8420  -8.2045  -7.6047  -7.3924  -4.9187
    -4.2076  -3.3650  -2.4617  -1.5233  -0.5730   0.3276   0.7593   0.9038
     0.9322   1.1367   1.3967   1.5691   1.7275   2.0125   2.3627   2.5100
     2.7392   2.9124   3.0200   3.1093   3.1812   3.3817   3.3881   3.5085
     3.6348   3.8001   3.9159   4.0475   4.2259   4.2284   4.5501   4.5581
     4.6856   4.9046   5.1734   5.2532   5.5881   5.7630   5.8854   6.1084
     6.1693   6.6095   6.6109   8.6899   8.6900  12.1554  12.4507  12.8498
    13.2724  13.6501  13.9612  14.2468  14.5433  14.6126  14.8466  14.8730
    15.1043  15.1707  15.2482  15.2740  15.3786  15.5520  15.5922  15.6972
    15.7855  15.9664  16.0707  16.1858  16.3258  16.5012  16.6836  16.7539
    16.8804  17.1670  17.3233  17.6178  17.8365  18.0251  18.1070  18.1647
    18.3834  18.4256  18.4902  18.6890  18.7733  18.9350  18.9406  19.0461
    19.1045  19.2438  19.3440  19.3950  19.4242  19.4995  19.5242  19.5250
    19.8702  20.0804  20.5219  20.8594  20.9645  21.0386  21.1964  21.3588
    21.4339  21.6353  21.7872  22.1748  22.4489  22.5916  24.8493  26.1449
    26.5578  26.9983  27.2051  27.3158  27.4836  27.5149  27.5690  27.6737
    27.8058  27.8562  27.9096  27.9489  28.0961  28.1128  28.1479  28.3694
    28.4057  28.5821  28.6032  28.7650  29.0082  29.1205

          k = 0.8000 0.9238 0.0000 ( 12660 PWs)   bands (ev):

   -11.2370 -11.1139 -10.9279 -10.6862 -10.3918 -10.0481  -9.6569  -9.2197
    -8.7387  -8.2164  -7.6567  -7.0683  -6.4683  -5.8925  -5.7069  -3.7734
    -3.2537  -2.7570  -2.3940  -2.1549  -1.9604  -1.7609  -1.5410  -1.3398
    -1.2779  -1.1937  -0.9735  -0.9266  -0.6201  -0.5386  -0.2524  -0.0401
     0.1182   0.3896   0.5486   0.5939   0.6420   0.7699   1.0913   1.1883
     1.5323   1.5398   1.7699   1.9362   2.0376   2.2942   2.3294   2.5101
     2.6644   2.7142   2.8337   2.9711   3.0351   3.3340   3.7518   4.2203
     4.6753   5.0455   5.2755   8.6712   8.6713  13.5613  13.5701  13.9284
    13.9644  14.4443  14.5276  15.0285  15.1664  15.6070  15.6919  16.0838
    16.1676  16.4608  16.6991  16.8642  16.8727  17.0391  17.2818  17.3349
    17.4382  17.5528  17.5677  17.6602  17.7009  17.8210  18.0015  18.0971
    18.1564  18.3416  18.3865  18.4374  18.5754  18.6825  18.7746  18.8072
    18.9008  19.1401  19.1416  19.1751  19.2057  19.2429  19.2557  19.3202
    19.3376  19.5439  19.6157  19.7713  19.8252  19.9687  20.0745  20.2833
    20.4153  20.5158  20.7305  20.7822  20.9014  21.2611  21.4523  21.5387
    22.0542  22.0712  22.3597  22.3889  22.5486  24.3952  26.4868  26.7120
    26.8111  26.9729  27.2829  27.5234  27.8583  27.9093  28.0658  28.1249
    28.1852  28.2307  28.3630  28.3728  28.4270  28.5234  28.5760  28.6054
    28.6578  28.7742  29.0012  29.2083  29.3114  29.6009

          k = 0.8000 1.1547 0.0000 ( 12650 PWs)   bands (ev):

    -7.7492  -7.7477  -7.7057  -7.6824  -7.6079  -7.4969  -7.3472  -7.1600
    -6.9352  -6.6729  -6.3753  -6.0481  -5.7126  -5.4498  -5.3685  -5.1420
    -4.8191  -4.6319  -4.4031  -4.3130  -3.9527  -3.9409  -3.5457  -3.4916
    -3.1526  -3.0586  -2.7817  -2.6980  -2.4258  -2.3925  -1.4616  -1.2655
    -1.0045  -0.9703  -0.9576  -0.7926  -0.6405  -0.4529  -0.1533   0.2061
     0.6263   0.7085   0.7165   1.0906   1.1576   1.1586   1.5084   1.5583
     1.5995   1.8508   2.1187   2.2428   2.3052   2.7211   3.1251   3.3667
     3.3980   3.6019   3.6186   8.5443   8.5444  12.8670  13.3410  14.0191
    14.7277  14.7363  14.8033  15.1214  15.1458  15.5084  15.7031  15.7992
    16.2883  16.3118  16.3860  16.5020  16.6514  16.6967  16.8191  16.9229
    17.1508  17.2431  17.3818  17.4494  17.6593  17.8092  17.9234  18.1667
    18.2070  18.7873  18.8441  19.2715  19.3124  19.4977  19.6483  19.7184
    19.8568  20.0406  20.2605  20.4956  20.5085  20.9216  21.6003  21.8313
    21.9478  22.0500  22.1601  22.1724  22.3517  22.3711  22.4303  22.4921
    22.4943  22.5372  22.5704  22.6313  22.6580  22.7950  22.8934  23.0068
    23.1212  23.2049  23.5764  23.8532  23.9215  24.1433  24.9227  25.0820
    25.4141  25.4315  25.8730  25.8782  26.1243  26.1304  26.4772  26.6095
    26.7125  26.8413  27.2627  27.4139  27.4372  27.5566  27.6076  27.7959
    28.0003  28.2796  29.1493  29.3487  29.5997  29.9746

          k = 0.8000 1.3856 0.0000 ( 12660 PWs)   bands (ev):

   -11.2370 -11.1139 -10.9279 -10.6862 -10.3918 -10.0481  -9.6569  -9.2197
    -8.7387  -8.2164  -7.6567  -7.0683  -6.4683  -5.8925  -5.7069  -3.7734
    -3.2537  -2.7570  -2.3940  -2.1549  -1.9604  -1.7609  -1.5410  -1.3398
    -1.2779  -1.1937  -0.9735  -0.9266  -0.6201  -0.5386  -0.2524  -0.0401
     0.1182   0.3896   0.5486   0.5939   0.6420   0.7699   1.0913   1.1883
     1.5323   1.5398   1.7699   1.9362   2.0376   2.2942   2.3294   2.5101
     2.6644   2.7142   2.8337   2.9711   3.0351   3.3340   3.7518   4.2203
     4.6753   5.0455   5.2755   8.6712   8.6713  13.5613  13.5701  13.9284
    13.9644  14.4443  14.5276  15.0285  15.1664  15.6070  15.6919  16.0838
    16.1676  16.4608  16.6991  16.8642  16.8727  17.0391  17.2818  17.3349
    17.4382  17.5528  17.5677  17.6602  17.7009  17.8210  18.0015  18.0971
    18.1564  18.3416  18.3865  18.4374  18.5754  18.6825  18.7746  18.8072
    18.9008  19.1401  19.1416  19.1751  19.2057  19.2429  19.2557  19.3202
    19.3376  19.5439  19.6157  19.7713  19.8252  19.9687  20.0745  20.2833
    20.4153  20.5158  20.7305  20.7822  20.9014  21.2611  21.4523  21.5387
    22.0542  22.0712  22.3597  22.3889  22.5486  24.3952  26.4868  26.7120
    26.8111  26.9729  27.2829  27.5234  27.8583  27.9093  28.0658  28.1249
    28.1852  28.2307  28.3630  28.3728  28.4270  28.5234  28.5760  28.6054
    28.6578  28.7742  29.0012  29.2083  29.3114  29.6009

     Writing output data file diam.slab.save/
 
     init_run     :      0.31s CPU      0.36s WALL (       1 calls)
     electrons    :     70.96s CPU    105.57s WALL (       1 calls)

     Called by init_run:
     wfcinit      :      0.00s CPU      0.01s WALL (       1 calls)
     wfcinit:atom :      0.02s CPU      0.03s WALL (       2 calls)
     wfcinit:wfcr :      2.69s CPU      3.44s WALL (       2 calls)
     potinit      :      0.15s CPU      0.18s WALL (       1 calls)
     hinit0       :      0.12s CPU      0.12s WALL (       1 calls)

     Called by electrons:
     c_bands      :     70.96s CPU    105.55s WALL (       1 calls)
     v_of_rho     :      0.13s CPU      0.16s WALL (       1 calls)
     v_h          :      0.00s CPU      0.01s WALL (       1 calls)
     v_xc         :      0.13s CPU      0.15s WALL (       1 calls)

     Called by c_bands:
     init_us_2    :      0.01s CPU      0.02s WALL (       2 calls)
     cegterg      :     53.39s CPU     63.00s WALL (       4 calls)

     Called by sum_band:

     Called by *egterg:
     h_psi        :     27.16s CPU     36.65s WALL (      62 calls)
     g_psi        :      0.29s CPU      0.29s WALL (      56 calls)
     cdiaghg      :      7.14s CPU      7.90s WALL (      58 calls)
     cegterg:over :      9.88s CPU      9.88s WALL (      56 calls)
     cegterg:upda :      6.87s CPU      6.92s WALL (      56 calls)
     cegterg:last :      3.63s CPU      3.64s WALL (      10 calls)

     Called by h_psi:
     h_psi:pot    :     26.96s CPU     36.40s WALL (      62 calls)
     h_psi:calbec :      1.33s CPU      1.32s WALL (      62 calls)
     vloc_psi     :     24.43s CPU     33.84s WALL (      62 calls)
     add_vuspsi   :      1.19s CPU      1.23s WALL (      62 calls)

     General routines
     calbec       :      1.33s CPU      1.32s WALL (      62 calls)
     fft          :      0.07s CPU      0.08s WALL (      10 calls)
     fftw         :     20.37s CPU     29.17s WALL (    9394 calls)
     davcio       :      0.03s CPU      0.83s WALL (       4 calls)
 
     Parallel routines
     fft_scatt_xy :      4.51s CPU      5.88s WALL (    9404 calls)
     fft_scatt_yz :      5.05s CPU      5.05s WALL (    9404 calls)
 
     PWSCF        :   1m12.24s CPU   1m55.68s WALL

 
   This run was terminated on:  15: 6:35   6Oct2019            

=------------------------------------------------------------------------------=
   JOB DONE.
=------------------------------------------------------------------------------=
