
     Program PW2WANNIER v.6.4.1 starts on  6Oct2019 at 15: 7:55 

     This program is part of the open-source Quantum ESPRESSO suite
     for quantum simulation of materials; please cite
         "P. Giannozzi et al., J. Phys.:Condens. Matter 21 395502 (2009);
         "P. Giannozzi et al., J. Phys.:Condens. Matter 29 465901 (2017);
          URL http://www.quantum-espresso.org", 
     in publications or presentations arising from this work. More details at
     http://www.quantum-espresso.org/quote

     Parallel version (MPI), running on    16 processors

     MPI processes distributed on     1 nodes
     R & G space division:  proc/nbgrp/npool/nimage =      16
 
  Reading nscf_save data

     Reading data from directory:
     temp/diam.bulk.save/
     Message from routine pw_read_schema:
     failed retrieving input info from xml file, please check it

     IMPORTANT: XC functional enforced from input :
     Exchange-correlation= PBESOL
                           (   1   4  10   8   0   0   0)
     Any further DFT definition will be discarded
     Please, verify this is what you really want

 
     Parallelization info
     --------------------
     sticks:   dense  smooth     PW     G-vecs:    dense   smooth      PW
     Min          23      23      9                  905      905     231
     Max          25      25     10                  910      910     242
     Sum         379     379    151                14535    14535    3787
 
 
  Spin CASE ( default = unpolarized )
 
  Wannier mode is: standalone     
 
  -----------------
  *** Reading nnkp 
  -----------------
 
  Checking info from wannier.nnkp file
 
  - Real lattice is ok
  - Reciprocal lattice is ok
  - K-points are ok
  - Number of wannier functions is ok ( 24)
  - All guiding functions are given 
 
 Projections:
    0.166665   -0.288672   -1.122675 -3  1  1    1.000000
    0.166665   -0.288672   -1.122675 -3  2  1    1.000000
    0.166665   -0.288672   -1.122675 -3  3  1    1.000000
    0.166665   -0.288672   -1.122675 -3  4  1    1.000000
    0.166665   -0.288672   -0.510302 -3  1  1    1.000000
    0.166665   -0.288672   -0.510302 -3  2  1    1.000000
    0.166665   -0.288672   -0.510302 -3  3  1    1.000000
    0.166665   -0.288672   -0.510302 -3  4  1    1.000000
   -0.333330    0.000000   -0.306186 -3  1  1    1.000000
   -0.333330    0.000000   -0.306186 -3  2  1    1.000000
   -0.333330    0.000000   -0.306186 -3  3  1    1.000000
   -0.333330    0.000000   -0.306186 -3  4  1    1.000000
   -0.333330    0.000000    0.306186 -3  1  1    1.000000
   -0.333330    0.000000    0.306186 -3  2  1    1.000000
   -0.333330    0.000000    0.306186 -3  3  1    1.000000
   -0.333330    0.000000    0.306186 -3  4  1    1.000000
    0.166665    0.288672    0.510302 -3  1  1    1.000000
    0.166665    0.288672    0.510302 -3  2  1    1.000000
    0.166665    0.288672    0.510302 -3  3  1    1.000000
    0.166665    0.288672    0.510302 -3  4  1    1.000000
    0.166665    0.288672    1.122675 -3  1  1    1.000000
    0.166665    0.288672    1.122675 -3  2  1    1.000000
    0.166665    0.288672    1.122675 -3  3  1    1.000000
    0.166665    0.288672    1.122675 -3  4  1    1.000000
 
  Reading data about k-point neighbours 
 
  All neighbours are found 
 
  Opening pp-files 
 
 
  --------------------------
  *** Compute  A projections
  --------------------------
 
  AMN: iknum =      100
       1       2       3       4       5       6       7       8       9      10
      11      12      13      14      15      16      17      18      19      20
      21      22      23      24      25      26      27      28      29      30
      31      32      33      34      35      36      37      38      39      40
      41      42      43      44      45      46      47      48      49      50
      51      52      53      54      55      56      57      58      59      60
      61      62      63      64      65      66      67      68      69      70
      71      72      73      74      75      76      77      78      79      80
      81      82      83      84      85      86      87      88      89      90
      91      92      93      94      95      96      97      98      99     100


  AMN calculated
 
  ---------------
  *** Compute  M 
  ---------------
 
  MMN: iknum =      100
       1       2       3       4       5       6       7       8       9      10
      11      12      13      14      15      16      17      18      19      20
      21      22      23      24      25      26      27      28      29      30
      31      32      33      34      35      36      37      38      39      40
      41      42      43      44      45      46      47      48      49      50
      51      52      53      54      55      56      57      58      59      60
      61      62      63      64      65      66      67      68      69      70
      71      72      73      74      75      76      77      78      79      80
      81      82      83      84      85      86      87      88      89      90
      91      92      93      94      95      96      97      98      99     100


  MMN calculated
 
  -----------------------------------
  *** Orbital terms are not computed 
  -----------------------------------
 
  ----------------
  *** Write bands 
  ----------------
 
 
  -----------------------------
  *** Plot info is not printed 
  -----------------------------
 
  -----------------------------
  *** Parity info is not printed 
  -----------------------------
 
  ------------
  *** Stop pp 
  ------------
 
 
     init_pw2wan  :      0.66s CPU      2.04s WALL (       1 calls)
     compute_amn  :      6.70s CPU      7.67s WALL (       1 calls)
     compute_mmn  :      4.04s CPU      7.30s WALL (       1 calls)
 
     PW2WANNIER   :     11.40s CPU     17.04s WALL

 
   This run was terminated on:  15: 8:12   6Oct2019            

=------------------------------------------------------------------------------=
   JOB DONE.
=------------------------------------------------------------------------------=
 
