
     Program PW2WANNIER v.6.4.1 starts on  6Oct2019 at 15:10: 6 

     This program is part of the open-source Quantum ESPRESSO suite
     for quantum simulation of materials; please cite
         "P. Giannozzi et al., J. Phys.:Condens. Matter 21 395502 (2009);
         "P. Giannozzi et al., J. Phys.:Condens. Matter 29 465901 (2017);
          URL http://www.quantum-espresso.org", 
     in publications or presentations arising from this work. More details at
     http://www.quantum-espresso.org/quote

     Parallel version (MPI), running on    16 processors

     MPI processes distributed on     1 nodes
     R & G space division:  proc/nbgrp/npool/nimage =      16
 
  Reading nscf_save data

     Reading data from directory:
     temp/diam.slab.save/
     Message from routine pw_read_schema:
     failed retrieving input info from xml file, please check it

     IMPORTANT: XC functional enforced from input :
     Exchange-correlation= PBESOL
                           (   1   4  10   8   0   0   0)
     Any further DFT definition will be discarded
     Please, verify this is what you really want

 
     Parallelization info
     --------------------
     sticks:   dense  smooth     PW     G-vecs:    dense   smooth      PW
     Min          23      23      9                 6305     6305    1597
     Max          25      25     10                 6332     6332    1662
     Sum         379     379    151               101125   101125   26039
 
 
  Spin CASE ( default = unpolarized )
 
  Wannier mode is: standalone     
 
  -----------------
  *** Reading nnkp 
  -----------------
 
  Checking info from wannier.nnkp file
 
  - Real lattice is ok
  - Reciprocal lattice is ok
  - K-points are ok
  - Number of wannier functions is ok (120)
  - All guiding functions are given 
 
 Projections:
   -0.333330    0.000000   -5.817612 -3  1  1    1.000000
   -0.333330    0.000000   -5.817612 -3  2  1    1.000000
   -0.333330    0.000000   -5.817612 -3  3  1    1.000000
   -0.333330    0.000000   -5.817612 -3  4  1    1.000000
    0.166665    0.288672   -5.613398 -3  1  1    1.000000
    0.166665    0.288672   -5.613398 -3  2  1    1.000000
    0.166665    0.288672   -5.613398 -3  3  1    1.000000
    0.166665    0.288672   -5.613398 -3  4  1    1.000000
    0.166665    0.288672   -5.001099 -3  1  1    1.000000
    0.166665    0.288672   -5.001099 -3  2  1    1.000000
    0.166665    0.288672   -5.001099 -3  3  1    1.000000
    0.166665    0.288672   -5.001099 -3  4  1    1.000000
    0.166665   -0.288672   -4.796885 -3  1  1    1.000000
    0.166665   -0.288672   -4.796885 -3  2  1    1.000000
    0.166665   -0.288672   -4.796885 -3  3  1    1.000000
    0.166665   -0.288672   -4.796885 -3  4  1    1.000000
    0.166665   -0.288672   -4.184586 -3  1  1    1.000000
    0.166665   -0.288672   -4.184586 -3  2  1    1.000000
    0.166665   -0.288672   -4.184586 -3  3  1    1.000000
    0.166665   -0.288672   -4.184586 -3  4  1    1.000000
   -0.333330    0.000000   -3.980372 -3  1  1    1.000000
   -0.333330    0.000000   -3.980372 -3  2  1    1.000000
   -0.333330    0.000000   -3.980372 -3  3  1    1.000000
   -0.333330    0.000000   -3.980372 -3  4  1    1.000000
   -0.333330    0.000000   -3.368073 -3  1  1    1.000000
   -0.333330    0.000000   -3.368073 -3  2  1    1.000000
   -0.333330    0.000000   -3.368073 -3  3  1    1.000000
   -0.333330    0.000000   -3.368073 -3  4  1    1.000000
    0.166665    0.288672   -3.163859 -3  1  1    1.000000
    0.166665    0.288672   -3.163859 -3  2  1    1.000000
    0.166665    0.288672   -3.163859 -3  3  1    1.000000
    0.166665    0.288672   -3.163859 -3  4  1    1.000000
    0.166665    0.288672   -2.551560 -3  1  1    1.000000
    0.166665    0.288672   -2.551560 -3  2  1    1.000000
    0.166665    0.288672   -2.551560 -3  3  1    1.000000
    0.166665    0.288672   -2.551560 -3  4  1    1.000000
    0.166665   -0.288672   -2.347346 -3  1  1    1.000000
    0.166665   -0.288672   -2.347346 -3  2  1    1.000000
    0.166665   -0.288672   -2.347346 -3  3  1    1.000000
    0.166665   -0.288672   -2.347346 -3  4  1    1.000000
    0.166665   -0.288672   -1.735047 -3  1  1    1.000000
    0.166665   -0.288672   -1.735047 -3  2  1    1.000000
    0.166665   -0.288672   -1.735047 -3  3  1    1.000000
    0.166665   -0.288672   -1.735047 -3  4  1    1.000000
   -0.333330    0.000000   -1.531005 -3  1  1    1.000000
   -0.333330    0.000000   -1.531005 -3  2  1    1.000000
   -0.333330    0.000000   -1.531005 -3  3  1    1.000000
   -0.333330    0.000000   -1.531005 -3  4  1    1.000000
   -0.333330    0.000000   -0.918534 -3  1  1    1.000000
   -0.333330    0.000000   -0.918534 -3  2  1    1.000000
   -0.333330    0.000000   -0.918534 -3  3  1    1.000000
   -0.333330    0.000000   -0.918534 -3  4  1    1.000000
    0.166665    0.288672   -0.714492 -3  1  1    1.000000
    0.166665    0.288672   -0.714492 -3  2  1    1.000000
    0.166665    0.288672   -0.714492 -3  3  1    1.000000
    0.166665    0.288672   -0.714492 -3  4  1    1.000000
    0.166665    0.288672   -0.102021 -3  1  1    1.000000
    0.166665    0.288672   -0.102021 -3  2  1    1.000000
    0.166665    0.288672   -0.102021 -3  3  1    1.000000
    0.166665    0.288672   -0.102021 -3  4  1    1.000000
    0.166665   -0.288672    0.102021 -3  1  1    1.000000
    0.166665   -0.288672    0.102021 -3  2  1    1.000000
    0.166665   -0.288672    0.102021 -3  3  1    1.000000
    0.166665   -0.288672    0.102021 -3  4  1    1.000000
    0.166665   -0.288672    0.714492 -3  1  1    1.000000
    0.166665   -0.288672    0.714492 -3  2  1    1.000000
    0.166665   -0.288672    0.714492 -3  3  1    1.000000
    0.166665   -0.288672    0.714492 -3  4  1    1.000000
   -0.333330    0.000000    0.918534 -3  1  1    1.000000
   -0.333330    0.000000    0.918534 -3  2  1    1.000000
   -0.333330    0.000000    0.918534 -3  3  1    1.000000
   -0.333330    0.000000    0.918534 -3  4  1    1.000000
   -0.333330    0.000000    1.531005 -3  1  1    1.000000
   -0.333330    0.000000    1.531005 -3  2  1    1.000000
   -0.333330    0.000000    1.531005 -3  3  1    1.000000
   -0.333330    0.000000    1.531005 -3  4  1    1.000000
    0.166665    0.288672    1.735047 -3  1  1    1.000000
    0.166665    0.288672    1.735047 -3  2  1    1.000000
    0.166665    0.288672    1.735047 -3  3  1    1.000000
    0.166665    0.288672    1.735047 -3  4  1    1.000000
    0.166665    0.288672    2.347346 -3  1  1    1.000000
    0.166665    0.288672    2.347346 -3  2  1    1.000000
    0.166665    0.288672    2.347346 -3  3  1    1.000000
    0.166665    0.288672    2.347346 -3  4  1    1.000000
    0.166665   -0.288672    2.551560 -3  1  1    1.000000
    0.166665   -0.288672    2.551560 -3  2  1    1.000000
    0.166665   -0.288672    2.551560 -3  3  1    1.000000
    0.166665   -0.288672    2.551560 -3  4  1    1.000000
    0.166665   -0.288672    3.163859 -3  1  1    1.000000
    0.166665   -0.288672    3.163859 -3  2  1    1.000000
    0.166665   -0.288672    3.163859 -3  3  1    1.000000
    0.166665   -0.288672    3.163859 -3  4  1    1.000000
   -0.333330    0.000000    3.368073 -3  1  1    1.000000
   -0.333330    0.000000    3.368073 -3  2  1    1.000000
   -0.333330    0.000000    3.368073 -3  3  1    1.000000
   -0.333330    0.000000    3.368073 -3  4  1    1.000000
   -0.333330    0.000000    3.980372 -3  1  1    1.000000
   -0.333330    0.000000    3.980372 -3  2  1    1.000000
   -0.333330    0.000000    3.980372 -3  3  1    1.000000
   -0.333330    0.000000    3.980372 -3  4  1    1.000000
    0.166665    0.288672    4.184586 -3  1  1    1.000000
    0.166665    0.288672    4.184586 -3  2  1    1.000000
    0.166665    0.288672    4.184586 -3  3  1    1.000000
    0.166665    0.288672    4.184586 -3  4  1    1.000000
    0.166665    0.288672    4.796885 -3  1  1    1.000000
    0.166665    0.288672    4.796885 -3  2  1    1.000000
    0.166665    0.288672    4.796885 -3  3  1    1.000000
    0.166665    0.288672    4.796885 -3  4  1    1.000000
    0.166665   -0.288672    5.001099 -3  1  1    1.000000
    0.166665   -0.288672    5.001099 -3  2  1    1.000000
    0.166665   -0.288672    5.001099 -3  3  1    1.000000
    0.166665   -0.288672    5.001099 -3  4  1    1.000000
    0.166665   -0.288672    5.613398 -3  1  1    1.000000
    0.166665   -0.288672    5.613398 -3  2  1    1.000000
    0.166665   -0.288672    5.613398 -3  3  1    1.000000
    0.166665   -0.288672    5.613398 -3  4  1    1.000000
   -0.333330    0.000000    5.817612 -3  1  1    1.000000
   -0.333330    0.000000    5.817612 -3  2  1    1.000000
   -0.333330    0.000000    5.817612 -3  3  1    1.000000
   -0.333330    0.000000    5.817612 -3  4  1    1.000000
 
  Reading data about k-point neighbours 
 
  All neighbours are found 
 
  Opening pp-files 
 
 
  --------------------------
  *** Compute  A projections
  --------------------------
 
  AMN: iknum =       25
       1       2       3       4       5       6       7       8       9      10
      11      12      13      14      15      16      17      18      19      20
      21      22      23      24      25

  AMN calculated
 
  ---------------
  *** Compute  M 
  ---------------
 
  MMN: iknum =       25
       1       2       3       4       5       6       7       8       9      10
      11      12      13      14      15      16      17      18      19      20
      21      22      23      24      25

  MMN calculated
 
  -----------------------------------
  *** Orbital terms are not computed 
  -----------------------------------
 
  ----------------
  *** Write bands 
  ----------------
 
 
  -----------------------------
  *** Plot info is not printed 
  -----------------------------
 
  -----------------------------
  *** Parity info is not printed 
  -----------------------------
 
  ------------
  *** Stop pp 
  ------------
 
 
     init_pw2wan  :      2.67s CPU     10.76s WALL (       1 calls)
     compute_amn  :     61.65s CPU     67.87s WALL (       1 calls)
     compute_mmn  :     38.14s CPU     58.74s WALL (       1 calls)
 
     PW2WANNIER   :   1m42.47s CPU   2m17.41s WALL

 
   This run was terminated on:  15:12:24   6Oct2019            

=------------------------------------------------------------------------------=
   JOB DONE.
=------------------------------------------------------------------------------=
 
